<?xml version="1.0" encoding="UTF-8"?>

<!-- generated on 2026-04-13T12:47:33.727551-05:00 by Eclipse SUMO sumo 1.25.0
<sumoConfiguration xmlns:xsi="http://www.w3.org/2001/XMLSchema-instance" xsi:noNamespaceSchemaLocation="http://sumo.dlr.de/xsd/sumoConfiguration.xsd">

    <input>
        <net-file value="/home/gribel/Capstone/sumo/network/intersection.net.xml"/>
        <route-files value="/home/gribel/Capstone/sumo/demand/balanced.rou.xml"/>
    </input>

    <output>
        <tripinfo-output value="/home/gribel/Capstone/sumo/config/tripinfo_8813.xml"/>
        <tripinfo-output.write-unfinished value="true"/>
    </output>

    <time>
        <begin value="0"/>
        <end value="21600"/>
        <step-length value="1.0"/>
    </time>

    <processing>
        <no-internal-links value="false"/>
        <time-to-teleport value="300"/>
        <max-depart-delay value="60"/>
    </processing>

    <report>
        <no-step-log value="true"/>
    </report>

    <traci_server>
        <remote-port value="8813"/>
    </traci_server>

    <gui_only>
        <quit-on-end value="true"/>
    </gui_only>

</sumoConfiguration>
-->

<tripinfos xmlns:xsi="http://www.w3.org/2001/XMLSchema-instance" xsi:noNamespaceSchemaLocation="http://sumo.dlr.de/xsd/tripinfo_file.xsd">
    <tripinfo id="S_thru_f2.0" depart="0.00" departLane="S_thru_2_0" departPos="5.10" departSpeed="0.00" departDelay="0.00" arrival="41.00" arrivalLane="center_to_S_0" arrivalPos="486.40" arrivalSpeed="14.75" duration="41.00" routeLength="545.12" waitingTime="0.00" waitingCount="0" stopTime="0.00" timeLoss="4.40" rerouteNo="0" devices="tripinfo_S_thru_f2.0" vType="car" speedFactor="1.08" vaporized=""/>
    <tripinfo id="N_thru_f1.0" depart="0.00" departLane="N_thru_1_0" departPos="5.10" departSpeed="0.00" departDelay="0.00" arrival="42.00" arrivalLane="center_to_N_0" arrivalPos="486.40" arrivalSpeed="13.67" duration="42.00" routeLength="545.78" waitingTime="0.00" waitingCount="0" stopTime="0.00" timeLoss="4.59" rerouteNo="0" devices="tripinfo_N_thru_f1.0" vType="car" speedFactor="1.06" vaporized=""/>
    <tripinfo id="E_left_f.0" depart="0.00" departLane="E_left_0" departPos="5.10" departSpeed="0.00" departDelay="0.00" arrival="42.00" arrivalLane="center_to_N_1" arrivalPos="486.40" arrivalSpeed="14.79" duration="42.00" routeLength="537.05" waitingTime="0.00" waitingCount="0" stopTime="0.00" timeLoss="5.33" rerouteNo="0" devices="tripinfo_E_left_f.0" vType="car" speedFactor="1.09" vaporized=""/>
    <tripinfo id="W_left_f.0" depart="0.00" departLane="W_left_0" departPos="5.10" departSpeed="0.00" departDelay="0.00" arrival="44.00" arrivalLane="center_to_S_1" arrivalPos="486.40" arrivalSpeed="14.01" duration="44.00" routeLength="537.05" waitingTime="0.00" waitingCount="0" stopTime="0.00" timeLoss="5.19" rerouteNo="0" devices="tripinfo_W_left_f.0" vType="car" speedFactor="1.03" vaporized=""/>
    <tripinfo id="S_thru_f1.0" depart="0.00" departLane="S_thru_1_0" departPos="5.10" departSpeed="0.00" departDelay="0.00" arrival="45.00" arrivalLane="center_to_S_0" arrivalPos="486.40" arrivalSpeed="13.73" duration="45.00" routeLength="545.78" waitingTime="0.00" waitingCount="0" stopTime="0.00" timeLoss="5.43" rerouteNo="0" devices="tripinfo_S_thru_f1.0" vType="car" speedFactor="1.01" vaporized=""/>
    <tripinfo id="N_thru_f2.0" depart="0.00" departLane="N_thru_2_0" departPos="5.10" departSpeed="0.00" departDelay="0.00" arrival="47.00" arrivalLane="center_to_N_0" arrivalPos="486.40" arrivalSpeed="12.44" duration="47.00" routeLength="545.12" waitingTime="0.00" waitingCount="0" stopTime="0.00" timeLoss="4.83" rerouteNo="0" devices="tripinfo_N_thru_f2.0" vType="car" speedFactor="0.94" vaporized=""/>
    <tripinfo id="N_left_f.0" depart="0.00" departLane="N_left_0" departPos="5.10" departSpeed="0.00" departDelay="0.00" arrival="48.00" arrivalLane="center_to_W_0" arrivalPos="486.40" arrivalSpeed="12.62" duration="48.00" routeLength="532.27" waitingTime="0.00" waitingCount="0" stopTime="0.00" timeLoss="5.87" rerouteNo="0" devices="tripinfo_N_left_f.0" vType="car" speedFactor="0.94" vaporized=""/>
    <tripinfo id="S_left_f.0" depart="0.00" departLane="S_left_0" departPos="5.10" departSpeed="0.00" departDelay="0.00" arrival="51.00" arrivalLane="center_to_E_0" arrivalPos="486.40" arrivalSpeed="11.21" duration="51.00" routeLength="532.27" waitingTime="0.00" waitingCount="0" stopTime="0.00" timeLoss="5.34" rerouteNo="0" devices="tripinfo_S_left_f.0" vType="car" speedFactor="0.86" vaporized=""/>
    <tripinfo id="N_thru_f2.1" depart="24.00" departLane="N_thru_2_0" departPos="5.10" departSpeed="0.00" departDelay="0.00" arrival="64.00" arrivalLane="center_to_N_0" arrivalPos="486.40" arrivalSpeed="15.14" duration="40.00" routeLength="545.12" waitingTime="0.00" waitingCount="0" stopTime="0.00" timeLoss="4.73" rerouteNo="0" devices="tripinfo_N_thru_f2.1" vType="car" speedFactor="1.12" vaporized=""/>
    <tripinfo id="N_thru_f1.1" depart="24.00" departLane="N_thru_1_0" departPos="5.10" departSpeed="0.00" departDelay="0.00" arrival="67.00" arrivalLane="center_to_N_0" arrivalPos="486.40" arrivalSpeed="13.38" duration="43.00" routeLength="545.78" waitingTime="0.00" waitingCount="0" stopTime="0.00" timeLoss="5.13" rerouteNo="0" devices="tripinfo_N_thru_f1.1" vType="car" speedFactor="1.05" vaporized=""/>
    <tripinfo id="S_thru_f1.1" depart="24.00" departLane="S_thru_1_0" departPos="5.10" departSpeed="0.00" departDelay="0.00" arrival="68.00" arrivalLane="center_to_S_0" arrivalPos="486.40" arrivalSpeed="13.11" duration="44.00" routeLength="545.78" waitingTime="0.00" waitingCount="0" stopTime="0.00" timeLoss="4.24" rerouteNo="0" devices="tripinfo_S_thru_f1.1" vType="car" speedFactor="0.99" vaporized=""/>
    <tripinfo id="S_thru_f2.1" depart="24.00" departLane="S_thru_2_0" departPos="5.10" departSpeed="0.00" departDelay="0.00" arrival="72.00" arrivalLane="center_to_S_0" arrivalPos="486.40" arrivalSpeed="12.12" duration="48.00" routeLength="545.12" waitingTime="0.00" waitingCount="0" stopTime="0.00" timeLoss="4.89" rerouteNo="0" devices="tripinfo_S_thru_f2.1" vType="car" speedFactor="0.93" vaporized=""/>
    <tripinfo id="N_left_f.1" depart="36.00" departLane="N_left_0" departPos="5.10" departSpeed="0.00" departDelay="0.00" arrival="81.00" arrivalLane="center_to_W_0" arrivalPos="486.40" arrivalSpeed="13.82" duration="45.00" routeLength="532.27" waitingTime="0.00" waitingCount="0" stopTime="0.00" timeLoss="5.95" rerouteNo="0" devices="tripinfo_N_left_f.1" vType="car" speedFactor="1.02" vaporized=""/>
    <tripinfo id="S_left_f.1" depart="36.00" departLane="S_left_0" departPos="5.10" departSpeed="0.00" departDelay="0.00" arrival="81.00" arrivalLane="center_to_E_0" arrivalPos="486.40" arrivalSpeed="13.21" duration="45.00" routeLength="532.27" waitingTime="0.00" waitingCount="0" stopTime="0.00" timeLoss="5.48" rerouteNo="0" devices="tripinfo_S_left_f.1" vType="car" speedFactor="1.01" vaporized=""/>
    <tripinfo id="E_left_f.1" depart="36.00" departLane="E_left_0" departPos="5.10" departSpeed="0.00" departDelay="0.00" arrival="82.00" arrivalLane="center_to_N_0" arrivalPos="486.40" arrivalSpeed="13.44" duration="46.00" routeLength="537.05" waitingTime="0.00" waitingCount="0" stopTime="0.00" timeLoss="5.16" rerouteNo="0" devices="tripinfo_E_left_f.1" vType="car" speedFactor="0.97" vaporized=""/>
    <tripinfo id="W_left_f.1" depart="36.00" departLane="W_left_0" departPos="5.10" departSpeed="0.00" departDelay="0.00" arrival="87.00" arrivalLane="center_to_S_0" arrivalPos="486.40" arrivalSpeed="11.85" duration="51.00" routeLength="537.05" waitingTime="0.00" waitingCount="0" stopTime="0.00" timeLoss="6.04" rerouteNo="0" devices="tripinfo_W_left_f.1" vType="car" speedFactor="0.89" vaporized=""/>
    <tripinfo id="S_thru_f2.2" depart="48.00" departLane="S_thru_2_0" departPos="5.10" departSpeed="0.00" departDelay="0.00" arrival="95.00" arrivalLane="center_to_S_1" arrivalPos="486.40" arrivalSpeed="13.15" duration="47.00" routeLength="545.12" waitingTime="0.00" waitingCount="0" stopTime="0.00" timeLoss="4.75" rerouteNo="0" devices="tripinfo_S_thru_f2.2" vType="car" speedFactor="0.95" vaporized=""/>
    <tripinfo id="S_thru_f1.2" depart="48.00" departLane="S_thru_1_0" departPos="5.10" departSpeed="0.00" departDelay="0.00" arrival="96.00" arrivalLane="center_to_S_0" arrivalPos="486.40" arrivalSpeed="12.24" duration="48.00" routeLength="545.78" waitingTime="0.00" waitingCount="0" stopTime="0.00" timeLoss="4.58" rerouteNo="0" devices="tripinfo_S_thru_f1.2" vType="car" speedFactor="0.92" vaporized=""/>
    <tripinfo id="N_thru_f2.2" depart="48.00" departLane="N_thru_2_0" departPos="5.10" departSpeed="0.00" departDelay="0.00" arrival="98.00" arrivalLane="center_to_N_0" arrivalPos="486.40" arrivalSpeed="11.77" duration="50.00" routeLength="545.12" waitingTime="0.00" waitingCount="0" stopTime="0.00" timeLoss="4.97" rerouteNo="0" devices="tripinfo_N_thru_f2.2" vType="car" speedFactor="0.87" vaporized=""/>
    <tripinfo id="N_thru_f1.2" depart="48.00" departLane="N_thru_1_0" departPos="5.10" departSpeed="0.00" departDelay="0.00" arrival="102.00" arrivalLane="center_to_N_0" arrivalPos="486.40" arrivalSpeed="10.79" duration="54.00" routeLength="545.78" waitingTime="0.00" waitingCount="0" stopTime="0.00" timeLoss="5.52" rerouteNo="0" devices="tripinfo_N_thru_f1.2" vType="car" speedFactor="0.83" vaporized=""/>
    <tripinfo id="N_thru_f2.3" depart="72.00" departLane="N_thru_2_0" departPos="5.10" departSpeed="0.00" departDelay="0.00" arrival="111.00" arrivalLane="center_to_N_0" arrivalPos="486.40" arrivalSpeed="16.05" duration="39.00" routeLength="545.12" waitingTime="0.00" waitingCount="0" stopTime="0.00" timeLoss="5.31" rerouteNo="0" devices="tripinfo_N_thru_f2.3" vType="car" speedFactor="1.17" vaporized=""/>
    <tripinfo id="E_left_f.2" depart="72.00" departLane="E_left_0" departPos="5.10" departSpeed="0.00" departDelay="0.00" arrival="114.00" arrivalLane="center_to_N_2" arrivalPos="486.40" arrivalSpeed="14.79" duration="42.00" routeLength="537.05" waitingTime="0.00" waitingCount="0" stopTime="0.00" timeLoss="5.17" rerouteNo="0" devices="tripinfo_E_left_f.2" vType="car" speedFactor="1.09" vaporized=""/>
    <tripinfo id="N_left_f.2" depart="72.00" departLane="N_left_0" departPos="5.10" departSpeed="0.00" departDelay="0.00" arrival="115.00" arrivalLane="center_to_W_0" arrivalPos="486.40" arrivalSpeed="13.13" duration="43.00" routeLength="532.27" waitingTime="0.00" waitingCount="0" stopTime="0.00" timeLoss="4.91" rerouteNo="0" devices="tripinfo_N_left_f.2" vType="car" speedFactor="1.03" vaporized=""/>
    <tripinfo id="N_thru_f1.3" depart="72.00" departLane="N_thru_1_0" departPos="5.10" departSpeed="0.00" departDelay="0.00" arrival="116.00" arrivalLane="center_to_N_0" arrivalPos="486.40" arrivalSpeed="13.09" duration="44.00" routeLength="545.78" waitingTime="0.00" waitingCount="0" stopTime="0.00" timeLoss="4.53" rerouteNo="0" devices="tripinfo_N_thru_f1.3" vType="car" speedFactor="1.01" vaporized=""/>
    <tripinfo id="S_thru_f2.3" depart="72.00" departLane="S_thru_2_0" departPos="5.10" departSpeed="0.00" departDelay="0.00" arrival="116.00" arrivalLane="center_to_S_0" arrivalPos="486.40" arrivalSpeed="13.44" duration="44.00" routeLength="545.12" waitingTime="0.00" waitingCount="0" stopTime="0.00" timeLoss="4.74" rerouteNo="0" devices="tripinfo_S_thru_f2.3" vType="car" speedFactor="1.02" vaporized=""/>
    <tripinfo id="W_left_f.2" depart="72.00" departLane="W_left_0" departPos="5.10" departSpeed="0.00" departDelay="0.00" arrival="116.00" arrivalLane="center_to_S_2" arrivalPos="486.40" arrivalSpeed="13.26" duration="44.00" routeLength="537.05" waitingTime="0.00" waitingCount="0" stopTime="0.00" timeLoss="5.53" rerouteNo="0" devices="tripinfo_W_left_f.2" vType="car" speedFactor="1.04" vaporized=""/>
    <tripinfo id="S_thru_f1.3" depart="72.00" departLane="S_thru_1_0" departPos="5.10" departSpeed="0.00" departDelay="0.00" arrival="117.00" arrivalLane="center_to_S_0" arrivalPos="486.40" arrivalSpeed="12.60" duration="45.00" routeLength="545.78" waitingTime="0.00" waitingCount="0" stopTime="0.00" timeLoss="5.36" rerouteNo="0" devices="tripinfo_S_thru_f1.3" vType="car" speedFactor="0.99" vaporized=""/>
    <tripinfo id="S_left_f.2" depart="72.00" departLane="S_left_0" departPos="5.10" departSpeed="0.00" departDelay="0.00" arrival="119.00" arrivalLane="center_to_E_0" arrivalPos="486.40" arrivalSpeed="12.65" duration="47.00" routeLength="532.27" waitingTime="0.00" waitingCount="0" stopTime="0.00" timeLoss="5.82" rerouteNo="0" devices="tripinfo_S_left_f.2" vType="car" speedFactor="0.96" vaporized=""/>
    <tripinfo id="N_thru_f2.4" depart="96.00" departLane="N_thru_2_0" departPos="5.10" departSpeed="0.00" departDelay="0.00" arrival="137.00" arrivalLane="center_to_N_0" arrivalPos="486.40" arrivalSpeed="14.08" duration="41.00" routeLength="545.12" waitingTime="0.00" waitingCount="0" stopTime="0.00" timeLoss="4.66" rerouteNo="0" devices="tripinfo_N_thru_f2.4" vType="car" speedFactor="1.09" vaporized=""/>
    <tripinfo id="N_thru_f1.4" depart="96.00" departLane="N_thru_1_0" departPos="5.10" departSpeed="0.00" departDelay="0.00" arrival="139.00" arrivalLane="center_to_N_0" arrivalPos="486.40" arrivalSpeed="13.93" duration="43.00" routeLength="545.78" waitingTime="0.00" waitingCount="0" stopTime="0.00" timeLoss="4.76" rerouteNo="0" devices="tripinfo_N_thru_f1.4" vType="car" speedFactor="1.04" vaporized=""/>
    <tripinfo id="S_thru_f1.4" depart="96.00" departLane="S_thru_1_0" departPos="5.10" departSpeed="0.00" departDelay="0.00" arrival="141.00" arrivalLane="center_to_S_0" arrivalPos="486.40" arrivalSpeed="12.66" duration="45.00" routeLength="545.78" waitingTime="0.00" waitingCount="0" stopTime="0.00" timeLoss="5.17" rerouteNo="0" devices="tripinfo_S_thru_f1.4" vType="car" speedFactor="1.00" vaporized=""/>
    <tripinfo id="S_thru_f2.4" depart="96.00" departLane="S_thru_2_0" departPos="5.10" departSpeed="0.00" departDelay="0.00" arrival="145.00" arrivalLane="center_to_S_0" arrivalPos="486.40" arrivalSpeed="12.43" duration="49.00" routeLength="545.12" waitingTime="0.00" waitingCount="0" stopTime="0.00" timeLoss="5.23" rerouteNo="0" devices="tripinfo_S_thru_f2.4" vType="car" speedFactor="0.90" vaporized=""/>
    <tripinfo id="S_left_f.3" depart="108.00" departLane="S_left_0" departPos="5.10" departSpeed="0.00" departDelay="0.00" arrival="150.00" arrivalLane="center_to_E_0" arrivalPos="486.40" arrivalSpeed="14.01" duration="42.00" routeLength="532.27" waitingTime="0.00" waitingCount="0" stopTime="0.00" timeLoss="5.89" rerouteNo="0" devices="tripinfo_S_left_f.3" vType="car" speedFactor="1.10" vaporized=""/>
    <tripinfo id="N_left_f.3" depart="108.00" departLane="N_left_0" departPos="5.10" departSpeed="0.00" departDelay="0.00" arrival="153.00" arrivalLane="center_to_W_0" arrivalPos="486.40" arrivalSpeed="13.72" duration="45.00" routeLength="532.27" waitingTime="0.00" waitingCount="0" stopTime="0.00" timeLoss="5.63" rerouteNo="0" devices="tripinfo_N_left_f.3" vType="car" speedFactor="1.02" vaporized=""/>
    <tripinfo id="E_left_f.3" depart="108.00" departLane="E_left_0" departPos="5.10" departSpeed="0.00" departDelay="0.00" arrival="153.00" arrivalLane="center_to_N_0" arrivalPos="486.40" arrivalSpeed="12.97" duration="45.00" routeLength="537.05" waitingTime="0.00" waitingCount="0" stopTime="0.00" timeLoss="5.54" rerouteNo="0" devices="tripinfo_E_left_f.3" vType="car" speedFactor="1.00" vaporized=""/>
    <tripinfo id="W_left_f.3" depart="108.00" departLane="W_left_0" departPos="5.10" departSpeed="0.00" departDelay="0.00" arrival="153.00" arrivalLane="center_to_S_0" arrivalPos="486.40" arrivalSpeed="12.65" duration="45.00" routeLength="537.05" waitingTime="0.00" waitingCount="0" stopTime="0.00" timeLoss="5.35" rerouteNo="0" devices="tripinfo_W_left_f.3" vType="car" speedFactor="1.00" vaporized=""/>
    <tripinfo id="N_thru_f2.5" depart="120.00" departLane="N_thru_2_0" departPos="5.10" departSpeed="0.00" departDelay="0.00" arrival="160.00" arrivalLane="center_to_N_0" arrivalPos="486.40" arrivalSpeed="15.81" duration="40.00" routeLength="545.12" waitingTime="0.00" waitingCount="0" stopTime="0.00" timeLoss="4.78" rerouteNo="0" devices="tripinfo_N_thru_f2.5" vType="car" speedFactor="1.14" vaporized=""/>
    <tripinfo id="S_thru_f1.5" depart="120.00" departLane="S_thru_1_0" departPos="5.10" departSpeed="0.00" departDelay="0.00" arrival="164.00" arrivalLane="center_to_S_0" arrivalPos="486.40" arrivalSpeed="13.33" duration="44.00" routeLength="545.78" waitingTime="0.00" waitingCount="0" stopTime="0.00" timeLoss="4.72" rerouteNo="0" devices="tripinfo_S_thru_f1.5" vType="car" speedFactor="1.02" vaporized=""/>
    <tripinfo id="S_thru_f2.5" depart="120.00" departLane="S_thru_2_0" departPos="5.10" departSpeed="0.00" departDelay="0.00" arrival="165.00" arrivalLane="center_to_S_0" arrivalPos="486.40" arrivalSpeed="12.66" duration="45.00" routeLength="545.12" waitingTime="0.00" waitingCount="0" stopTime="0.00" timeLoss="4.52" rerouteNo="0" devices="tripinfo_S_thru_f2.5" vType="car" speedFactor="0.97" vaporized=""/>
    <tripinfo id="N_thru_f1.5" depart="120.00" departLane="N_thru_1_0" departPos="5.10" departSpeed="0.00" departDelay="0.00" arrival="169.00" arrivalLane="center_to_N_0" arrivalPos="486.40" arrivalSpeed="11.61" duration="49.00" routeLength="545.78" waitingTime="0.00" waitingCount="0" stopTime="0.00" timeLoss="4.91" rerouteNo="0" devices="tripinfo_N_thru_f1.5" vType="car" speedFactor="0.90" vaporized=""/>
    <tripinfo id="S_left_f.4" depart="144.00" departLane="S_left_0" departPos="5.10" departSpeed="0.00" departDelay="0.00" arrival="188.00" arrivalLane="center_to_E_0" arrivalPos="486.40" arrivalSpeed="13.88" duration="44.00" routeLength="532.27" waitingTime="0.00" waitingCount="0" stopTime="0.00" timeLoss="6.12" rerouteNo="0" devices="tripinfo_S_left_f.4" vType="car" speedFactor="1.06" vaporized=""/>
    <tripinfo id="W_left_f.4" depart="144.00" departLane="W_left_0" departPos="5.10" departSpeed="0.00" departDelay="0.00" arrival="190.00" arrivalLane="center_to_S_1" arrivalPos="486.40" arrivalSpeed="12.55" duration="46.00" routeLength="537.05" waitingTime="0.00" waitingCount="0" stopTime="0.00" timeLoss="5.87" rerouteNo="0" devices="tripinfo_W_left_f.4" vType="car" speedFactor="0.98" vaporized=""/>
    <tripinfo id="N_thru_f1.6" depart="144.00" departLane="N_thru_1_0" departPos="5.10" departSpeed="0.00" departDelay="0.00" arrival="191.00" arrivalLane="center_to_N_0" arrivalPos="486.40" arrivalSpeed="12.49" duration="47.00" routeLength="545.78" waitingTime="0.00" waitingCount="0" stopTime="0.00" timeLoss="4.81" rerouteNo="0" devices="tripinfo_N_thru_f1.6" vType="car" speedFactor="0.94" vaporized=""/>
    <tripinfo id="E_left_f.4" depart="144.00" departLane="E_left_0" departPos="5.10" departSpeed="0.00" departDelay="0.00" arrival="191.00" arrivalLane="center_to_N_1" arrivalPos="486.40" arrivalSpeed="12.00" duration="47.00" routeLength="537.05" waitingTime="0.00" waitingCount="0" stopTime="0.00" timeLoss="5.43" rerouteNo="0" devices="tripinfo_E_left_f.4" vType="car" speedFactor="0.96" vaporized=""/>
    <tripinfo id="N_left_f.4" depart="144.00" departLane="N_left_0" departPos="5.10" departSpeed="0.00" departDelay="0.00" arrival="192.00" arrivalLane="center_to_W_0" arrivalPos="486.40" arrivalSpeed="11.91" duration="48.00" routeLength="532.27" waitingTime="0.00" waitingCount="0" stopTime="0.00" timeLoss="6.28" rerouteNo="0" devices="tripinfo_N_left_f.4" vType="car" speedFactor="0.94" vaporized=""/>
    <tripinfo id="S_thru_f2.6" depart="144.00" departLane="S_thru_2_0" departPos="5.10" departSpeed="0.00" departDelay="0.00" arrival="193.00" arrivalLane="center_to_S_1" arrivalPos="486.40" arrivalSpeed="12.05" duration="49.00" routeLength="545.12" waitingTime="0.00" waitingCount="0" stopTime="0.00" timeLoss="5.24" rerouteNo="0" devices="tripinfo_S_thru_f2.6" vType="car" speedFactor="0.91" vaporized=""/>
    <tripinfo id="N_thru_f2.6" depart="144.00" departLane="N_thru_2_0" departPos="5.10" departSpeed="0.00" departDelay="0.00" arrival="194.00" arrivalLane="center_to_N_0" arrivalPos="486.40" arrivalSpeed="12.20" duration="50.00" routeLength="545.12" waitingTime="0.00" waitingCount="0" stopTime="0.00" timeLoss="4.86" rerouteNo="0" devices="tripinfo_N_thru_f2.6" vType="car" speedFactor="0.88" vaporized=""/>
    <tripinfo id="S_thru_f1.6" depart="144.00" departLane="S_thru_1_0" departPos="5.10" departSpeed="0.00" departDelay="0.00" arrival="194.00" arrivalLane="center_to_S_0" arrivalPos="486.40" arrivalSpeed="12.06" duration="50.00" routeLength="545.78" waitingTime="0.00" waitingCount="0" stopTime="0.00" timeLoss="5.81" rerouteNo="0" devices="tripinfo_S_thru_f1.6" vType="car" speedFactor="0.91" vaporized=""/>
    <tripinfo id="S_thru_f2.7" depart="168.00" departLane="S_thru_2_0" departPos="5.10" departSpeed="0.00" departDelay="0.00" arrival="210.00" arrivalLane="center_to_S_0" arrivalPos="486.40" arrivalSpeed="14.10" duration="42.00" routeLength="545.12" waitingTime="0.00" waitingCount="0" stopTime="0.00" timeLoss="5.13" rerouteNo="0" devices="tripinfo_S_thru_f2.7" vType="car" speedFactor="1.09" vaporized=""/>
    <tripinfo id="N_thru_f1.7" depart="168.00" departLane="N_thru_1_0" departPos="5.10" departSpeed="0.00" departDelay="0.00" arrival="211.00" arrivalLane="center_to_N_0" arrivalPos="486.40" arrivalSpeed="13.56" duration="43.00" routeLength="545.78" waitingTime="0.00" waitingCount="0" stopTime="0.00" timeLoss="4.71" rerouteNo="0" devices="tripinfo_N_thru_f1.7" vType="car" speedFactor="1.03" vaporized=""/>
    <tripinfo id="N_thru_f2.7" depart="168.00" departLane="N_thru_2_0" departPos="5.10" departSpeed="0.00" departDelay="0.00" arrival="213.00" arrivalLane="center_to_N_1" arrivalPos="486.40" arrivalSpeed="12.53" duration="45.00" routeLength="545.12" waitingTime="0.00" waitingCount="0" stopTime="0.00" timeLoss="4.63" rerouteNo="0" devices="tripinfo_N_thru_f2.7" vType="car" speedFactor="0.98" vaporized=""/>
    <tripinfo id="S_thru_f1.7" depart="168.00" departLane="S_thru_1_0" departPos="5.10" departSpeed="0.00" departDelay="0.00" arrival="213.00" arrivalLane="center_to_S_0" arrivalPos="486.40" arrivalSpeed="12.91" duration="45.00" routeLength="545.78" waitingTime="0.00" waitingCount="0" stopTime="0.00" timeLoss="5.50" rerouteNo="0" devices="tripinfo_S_thru_f1.7" vType="car" speedFactor="1.01" vaporized=""/>
    <tripinfo id="N_left_f.5" depart="180.00" departLane="N_left_0" departPos="5.10" departSpeed="0.00" departDelay="0.00" arrival="220.00" arrivalLane="center_to_W_0" arrivalPos="486.40" arrivalSpeed="14.88" duration="40.00" routeLength="532.27" waitingTime="0.00" waitingCount="0" stopTime="0.00" timeLoss="5.74" rerouteNo="0" devices="tripinfo_N_left_f.5" vType="car" speedFactor="1.15" vaporized=""/>
    <tripinfo id="W_left_f.5" depart="180.00" departLane="W_left_0" departPos="5.10" departSpeed="0.00" departDelay="0.00" arrival="224.00" arrivalLane="center_to_S_0" arrivalPos="486.40" arrivalSpeed="13.59" duration="44.00" routeLength="537.05" waitingTime="0.00" waitingCount="0" stopTime="0.00" timeLoss="5.73" rerouteNo="0" devices="tripinfo_W_left_f.5" vType="car" speedFactor="1.04" vaporized=""/>
    <tripinfo id="E_left_f.5" depart="180.00" departLane="E_left_0" departPos="5.10" departSpeed="0.00" departDelay="0.00" arrival="225.00" arrivalLane="center_to_N_0" arrivalPos="486.40" arrivalSpeed="13.51" duration="45.00" routeLength="537.05" waitingTime="0.00" waitingCount="0" stopTime="0.00" timeLoss="5.19" rerouteNo="0" devices="tripinfo_E_left_f.5" vType="car" speedFactor="1.00" vaporized=""/>
    <tripinfo id="S_left_f.5" depart="180.00" departLane="S_left_0" departPos="5.10" departSpeed="0.00" departDelay="0.00" arrival="226.00" arrivalLane="center_to_E_0" arrivalPos="486.40" arrivalSpeed="12.85" duration="46.00" routeLength="532.27" waitingTime="0.00" waitingCount="0" stopTime="0.00" timeLoss="5.80" rerouteNo="0" devices="tripinfo_S_left_f.5" vType="car" speedFactor="0.98" vaporized=""/>
    <tripinfo id="N_thru_f1.8" depart="192.00" departLane="N_thru_1_0" departPos="5.10" departSpeed="0.00" departDelay="0.00" arrival="236.00" arrivalLane="center_to_N_0" arrivalPos="486.40" arrivalSpeed="13.03" duration="44.00" routeLength="545.78" waitingTime="0.00" waitingCount="0" stopTime="0.00" timeLoss="4.62" rerouteNo="0" devices="tripinfo_N_thru_f1.8" vType="car" speedFactor="1.01" vaporized=""/>
    <tripinfo id="N_thru_f2.8" depart="192.00" departLane="N_thru_2_0" departPos="5.10" departSpeed="0.00" departDelay="0.00" arrival="236.00" arrivalLane="center_to_N_1" arrivalPos="486.40" arrivalSpeed="13.06" duration="44.00" routeLength="545.12" waitingTime="0.00" waitingCount="0" stopTime="0.00" timeLoss="5.05" rerouteNo="0" devices="tripinfo_N_thru_f2.8" vType="car" speedFactor="1.02" vaporized=""/>
    <tripinfo id="S_thru_f1.8" depart="192.00" departLane="S_thru_1_0" departPos="5.10" departSpeed="0.00" departDelay="0.00" arrival="236.00" arrivalLane="center_to_S_0" arrivalPos="486.40" arrivalSpeed="13.48" duration="44.00" routeLength="545.78" waitingTime="0.00" waitingCount="0" stopTime="0.00" timeLoss="4.63" rerouteNo="0" devices="tripinfo_S_thru_f1.8" vType="car" speedFactor="1.02" vaporized=""/>
    <tripinfo id="S_thru_f2.8" depart="192.00" departLane="S_thru_2_0" departPos="5.10" departSpeed="0.00" departDelay="0.00" arrival="242.00" arrivalLane="center_to_S_0" arrivalPos="486.40" arrivalSpeed="11.43" duration="50.00" routeLength="545.12" waitingTime="0.00" waitingCount="0" stopTime="0.00" timeLoss="5.32" rerouteNo="0" devices="tripinfo_S_thru_f2.8" vType="car" speedFactor="0.89" vaporized=""/>
    <tripinfo id="S_thru_f1.9" depart="216.00" departLane="S_thru_1_0" departPos="5.10" departSpeed="0.00" departDelay="0.00" arrival="256.00" arrivalLane="center_to_S_0" arrivalPos="486.40" arrivalSpeed="14.60" duration="40.00" routeLength="545.78" waitingTime="0.00" waitingCount="0" stopTime="0.00" timeLoss="4.36" rerouteNo="0" devices="tripinfo_S_thru_f1.9" vType="car" speedFactor="1.12" vaporized=""/>
    <tripinfo id="S_thru_f2.9" depart="216.00" departLane="S_thru_2_0" departPos="5.10" departSpeed="0.00" departDelay="0.00" arrival="257.00" arrivalLane="center_to_S_1" arrivalPos="486.40" arrivalSpeed="15.10" duration="41.00" routeLength="545.12" waitingTime="0.00" waitingCount="0" stopTime="0.00" timeLoss="4.83" rerouteNo="0" devices="tripinfo_S_thru_f2.9" vType="car" speedFactor="1.10" vaporized=""/>
    <tripinfo id="S_left_f.6" depart="216.00" departLane="S_left_0" departPos="5.10" departSpeed="0.00" departDelay="0.00" arrival="259.00" arrivalLane="center_to_E_0" arrivalPos="486.40" arrivalSpeed="14.27" duration="43.00" routeLength="532.27" waitingTime="0.00" waitingCount="0" stopTime="0.00" timeLoss="5.76" rerouteNo="0" devices="tripinfo_S_left_f.6" vType="car" speedFactor="1.07" vaporized=""/>
    <tripinfo id="N_thru_f1.9" depart="216.00" departLane="N_thru_1_0" departPos="5.10" departSpeed="0.00" departDelay="0.00" arrival="260.00" arrivalLane="center_to_N_0" arrivalPos="486.40" arrivalSpeed="13.95" duration="44.00" routeLength="545.78" waitingTime="0.00" waitingCount="0" stopTime="0.00" timeLoss="4.70" rerouteNo="0" devices="tripinfo_N_thru_f1.9" vType="car" speedFactor="1.01" vaporized=""/>
    <tripinfo id="W_left_f.6" depart="216.00" departLane="W_left_0" departPos="5.10" departSpeed="0.00" departDelay="0.00" arrival="260.00" arrivalLane="center_to_S_1" arrivalPos="486.40" arrivalSpeed="13.71" duration="44.00" routeLength="537.05" waitingTime="0.00" waitingCount="0" stopTime="0.00" timeLoss="5.49" rerouteNo="0" devices="tripinfo_W_left_f.6" vType="car" speedFactor="1.03" vaporized=""/>
    <tripinfo id="E_left_f.6" depart="216.00" departLane="E_left_0" departPos="5.10" departSpeed="0.00" departDelay="0.00" arrival="261.00" arrivalLane="center_to_N_1" arrivalPos="486.40" arrivalSpeed="13.69" duration="45.00" routeLength="537.05" waitingTime="0.00" waitingCount="0" stopTime="0.00" timeLoss="5.62" rerouteNo="0" devices="tripinfo_E_left_f.6" vType="car" speedFactor="1.01" vaporized=""/>
    <tripinfo id="N_thru_f2.9" depart="216.00" departLane="N_thru_2_0" departPos="5.10" departSpeed="0.00" departDelay="0.00" arrival="265.00" arrivalLane="center_to_N_0" arrivalPos="486.40" arrivalSpeed="11.89" duration="49.00" routeLength="545.12" waitingTime="0.00" waitingCount="0" stopTime="0.00" timeLoss="4.88" rerouteNo="0" devices="tripinfo_N_thru_f2.9" vType="car" speedFactor="0.91" vaporized=""/>
    <tripinfo id="N_left_f.6" depart="216.00" departLane="N_left_0" departPos="5.10" departSpeed="0.00" departDelay="0.00" arrival="266.00" arrivalLane="center_to_W_0" arrivalPos="486.40" arrivalSpeed="11.42" duration="50.00" routeLength="532.27" waitingTime="0.00" waitingCount="0" stopTime="0.00" timeLoss="6.24" rerouteNo="0" devices="tripinfo_N_left_f.6" vType="car" speedFactor="0.89" vaporized=""/>
    <tripinfo id="N_thru_f1.10" depart="240.00" departLane="N_thru_1_0" departPos="5.10" departSpeed="0.00" departDelay="0.00" arrival="282.00" arrivalLane="center_to_N_0" arrivalPos="486.40" arrivalSpeed="14.53" duration="42.00" routeLength="545.78" waitingTime="0.00" waitingCount="0" stopTime="0.00" timeLoss="4.94" rerouteNo="0" devices="tripinfo_N_thru_f1.10" vType="car" speedFactor="1.06" vaporized=""/>
    <tripinfo id="N_thru_f2.10" depart="240.00" departLane="N_thru_2_0" departPos="5.10" departSpeed="0.00" departDelay="0.00" arrival="286.00" arrivalLane="center_to_N_0" arrivalPos="486.40" arrivalSpeed="12.93" duration="46.00" routeLength="545.12" waitingTime="0.00" waitingCount="0" stopTime="0.00" timeLoss="5.11" rerouteNo="0" devices="tripinfo_N_thru_f2.10" vType="car" speedFactor="0.96" vaporized=""/>