<?xml version="1.0" encoding="UTF-8"?>

<!-- generated on 2026-04-13T12:47:33.711430-05:00 by Eclipse SUMO sumo 1.25.0
<sumoConfiguration xmlns:xsi="http://www.w3.org/2001/XMLSchema-instance" xsi:noNamespaceSchemaLocation="http://sumo.dlr.de/xsd/sumoConfiguration.xsd">

    <input>
        <net-file value="/home/gribel/Capstone/sumo/network/intersection.net.xml"/>
        <route-files value="/home/gribel/Capstone/sumo/demand/north_south_heavy.rou.xml"/>
    </input>

    <output>
        <tripinfo-output value="/home/gribel/Capstone/sumo/config/tripinfo_8817.xml"/>
        <tripinfo-output.write-unfinished value="true"/>
    </output>

    <time>
        <begin value="0"/>
        <end value="21600"/>
        <step-length value="1.0"/>
    </time>

    <processing>
        <no-internal-links value="false"/>
        <time-to-teleport value="300"/>
        <max-depart-delay value="60"/>
    </processing>

    <report>
        <no-step-log value="true"/>
    </report>

    <traci_server>
        <remote-port value="8817"/>
    </traci_server>

    <gui_only>
        <quit-on-end value="true"/>
    </gui_only>

</sumoConfiguration>
-->

<tripinfos xmlns:xsi="http://www.w3.org/2001/XMLSchema-instance" xsi:noNamespaceSchemaLocation="http://sumo.dlr.de/xsd/tripinfo_file.xsd">
    <tripinfo id="S_thru_f2.0" depart="0.00" departLane="S_thru_2_0" departPos="5.10" departSpeed="0.00" departDelay="0.00" arrival="41.00" arrivalLane="center_to_S_0" arrivalPos="486.40" arrivalSpeed="14.03" duration="41.00" routeLength="545.12" waitingTime="0.00" waitingCount="0" stopTime="0.00" timeLoss="4.42" rerouteNo="0" devices="tripinfo_S_thru_f2.0" vType="car" speedFactor="1.08" vaporized=""/>
    <tripinfo id="N_thru_f1.0" depart="0.00" departLane="N_thru_1_0" departPos="5.10" departSpeed="0.00" departDelay="0.00" arrival="42.00" arrivalLane="center_to_N_0" arrivalPos="486.40" arrivalSpeed="13.57" duration="42.00" routeLength="545.78" waitingTime="0.00" waitingCount="0" stopTime="0.00" timeLoss="4.61" rerouteNo="0" devices="tripinfo_N_thru_f1.0" vType="car" speedFactor="1.06" vaporized=""/>
    <tripinfo id="E_left_f.0" depart="0.00" departLane="E_left_0" departPos="5.10" departSpeed="0.00" departDelay="0.00" arrival="42.00" arrivalLane="center_to_N_1" arrivalPos="486.40" arrivalSpeed="15.08" duration="42.00" routeLength="537.05" waitingTime="0.00" waitingCount="0" stopTime="0.00" timeLoss="5.40" rerouteNo="0" devices="tripinfo_E_left_f.0" vType="car" speedFactor="1.09" vaporized=""/>
    <tripinfo id="W_left_f.0" depart="0.00" departLane="W_left_0" departPos="5.10" departSpeed="0.00" departDelay="0.00" arrival="44.00" arrivalLane="center_to_S_1" arrivalPos="486.40" arrivalSpeed="13.91" duration="44.00" routeLength="537.05" waitingTime="0.00" waitingCount="0" stopTime="0.00" timeLoss="5.29" rerouteNo="0" devices="tripinfo_W_left_f.0" vType="car" speedFactor="1.03" vaporized=""/>
    <tripinfo id="S_thru_f1.0" depart="0.00" departLane="S_thru_1_0" departPos="5.10" departSpeed="0.00" departDelay="0.00" arrival="45.00" arrivalLane="center_to_S_0" arrivalPos="486.40" arrivalSpeed="13.88" duration="45.00" routeLength="545.78" waitingTime="0.00" waitingCount="0" stopTime="0.00" timeLoss="5.33" rerouteNo="0" devices="tripinfo_S_thru_f1.0" vType="car" speedFactor="1.01" vaporized=""/>
    <tripinfo id="N_thru_f2.0" depart="0.00" departLane="N_thru_2_0" departPos="5.10" departSpeed="0.00" departDelay="0.00" arrival="47.00" arrivalLane="center_to_N_0" arrivalPos="486.40" arrivalSpeed="12.19" duration="47.00" routeLength="545.12" waitingTime="0.00" waitingCount="0" stopTime="0.00" timeLoss="4.79" rerouteNo="0" devices="tripinfo_N_thru_f2.0" vType="car" speedFactor="0.94" vaporized=""/>
    <tripinfo id="N_left_f.0" depart="0.00" departLane="N_left_0" departPos="5.10" departSpeed="0.00" departDelay="0.00" arrival="48.00" arrivalLane="center_to_W_0" arrivalPos="486.40" arrivalSpeed="12.30" duration="48.00" routeLength="532.27" waitingTime="0.00" waitingCount="0" stopTime="0.00" timeLoss="5.96" rerouteNo="0" devices="tripinfo_N_left_f.0" vType="car" speedFactor="0.94" vaporized=""/>
    <tripinfo id="S_left_f.0" depart="0.00" departLane="S_left_0" departPos="5.10" departSpeed="0.00" departDelay="0.00" arrival="51.00" arrivalLane="center_to_E_0" arrivalPos="486.40" arrivalSpeed="11.69" duration="51.00" routeLength="532.27" waitingTime="0.00" waitingCount="0" stopTime="0.00" timeLoss="5.24" rerouteNo="0" devices="tripinfo_S_left_f.0" vType="car" speedFactor="0.86" vaporized=""/>
    <tripinfo id="N_thru_f2.1" depart="15.00" departLane="N_thru_2_0" departPos="5.10" departSpeed="0.00" departDelay="0.60" arrival="55.00" arrivalLane="center_to_N_0" arrivalPos="486.40" arrivalSpeed="14.43" duration="40.00" routeLength="545.12" waitingTime="0.00" waitingCount="0" stopTime="0.00" timeLoss="4.66" rerouteNo="0" devices="tripinfo_N_thru_f2.1" vType="car" speedFactor="1.12" vaporized=""/>
    <tripinfo id="N_thru_f1.1" depart="15.00" departLane="N_thru_1_0" departPos="5.10" departSpeed="0.00" departDelay="0.60" arrival="58.00" arrivalLane="center_to_N_0" arrivalPos="486.40" arrivalSpeed="13.59" duration="43.00" routeLength="545.78" waitingTime="0.00" waitingCount="0" stopTime="0.00" timeLoss="4.88" rerouteNo="0" devices="tripinfo_N_thru_f1.1" vType="car" speedFactor="1.05" vaporized=""/>
    <tripinfo id="S_thru_f1.1" depart="15.00" departLane="S_thru_1_0" departPos="5.10" departSpeed="0.00" departDelay="0.60" arrival="60.00" arrivalLane="center_to_S_0" arrivalPos="486.40" arrivalSpeed="12.96" duration="45.00" routeLength="545.78" waitingTime="0.00" waitingCount="0" stopTime="0.00" timeLoss="4.50" rerouteNo="0" devices="tripinfo_S_thru_f1.1" vType="car" speedFactor="0.99" vaporized=""/>
    <tripinfo id="S_thru_f2.1" depart="15.00" departLane="S_thru_2_0" departPos="5.10" departSpeed="0.00" departDelay="0.60" arrival="62.00" arrivalLane="center_to_S_0" arrivalPos="486.40" arrivalSpeed="11.84" duration="47.00" routeLength="545.12" waitingTime="0.00" waitingCount="0" stopTime="0.00" timeLoss="4.63" rerouteNo="0" devices="tripinfo_S_thru_f2.1" vType="car" speedFactor="0.93" vaporized=""/>
    <tripinfo id="N_thru_f2.2" depart="29.00" departLane="N_thru_2_0" departPos="5.10" departSpeed="0.00" departDelay="0.20" arrival="68.00" arrivalLane="center_to_N_0" arrivalPos="486.40" arrivalSpeed="14.87" duration="39.00" routeLength="545.12" waitingTime="0.00" waitingCount="0" stopTime="0.00" timeLoss="4.73" rerouteNo="0" devices="tripinfo_N_thru_f2.2" vType="car" speedFactor="1.16" vaporized=""/>
    <tripinfo id="S_left_f.1" depart="24.00" departLane="S_left_0" departPos="5.10" departSpeed="0.00" departDelay="0.00" arrival="72.00" arrivalLane="center_to_E_0" arrivalPos="486.40" arrivalSpeed="12.62" duration="48.00" routeLength="532.27" waitingTime="0.00" waitingCount="0" stopTime="0.00" timeLoss="5.70" rerouteNo="0" devices="tripinfo_S_left_f.1" vType="car" speedFactor="0.94" vaporized=""/>
    <tripinfo id="S_thru_f1.2" depart="29.00" departLane="S_thru_1_0" departPos="5.10" departSpeed="0.00" departDelay="0.20" arrival="72.00" arrivalLane="center_to_S_0" arrivalPos="486.40" arrivalSpeed="13.11" duration="43.00" routeLength="545.78" waitingTime="0.00" waitingCount="0" stopTime="0.00" timeLoss="4.29" rerouteNo="0" devices="tripinfo_S_thru_f1.2" vType="car" speedFactor="1.02" vaporized=""/>
    <tripinfo id="S_thru_f2.2" depart="29.00" departLane="S_thru_2_0" departPos="5.10" departSpeed="0.00" departDelay="0.20" arrival="73.00" arrivalLane="center_to_S_0" arrivalPos="486.40" arrivalSpeed="12.81" duration="44.00" routeLength="545.12" waitingTime="0.00" waitingCount="0" stopTime="0.00" timeLoss="4.56" rerouteNo="0" devices="tripinfo_S_thru_f2.2" vType="car" speedFactor="1.01" vaporized=""/>
    <tripinfo id="N_left_f.1" depart="24.00" departLane="N_left_0" departPos="5.10" departSpeed="0.00" departDelay="0.00" arrival="75.00" arrivalLane="center_to_W_0" arrivalPos="486.40" arrivalSpeed="11.43" duration="51.00" routeLength="532.27" waitingTime="0.00" waitingCount="0" stopTime="0.00" timeLoss="6.02" rerouteNo="0" devices="tripinfo_N_left_f.1" vType="car" speedFactor="0.88" vaporized=""/>
    <tripinfo id="N_thru_f1.2" depart="29.00" departLane="N_thru_1_0" departPos="5.10" departSpeed="0.00" departDelay="0.20" arrival="77.00" arrivalLane="center_to_N_0" arrivalPos="486.40" arrivalSpeed="12.74" duration="48.00" routeLength="545.78" waitingTime="0.00" waitingCount="0" stopTime="0.00" timeLoss="5.29" rerouteNo="0" devices="tripinfo_N_thru_f1.2" vType="car" speedFactor="0.94" vaporized=""/>
    <tripinfo id="N_thru_f1.3" depart="44.00" departLane="N_thru_1_0" departPos="5.10" departSpeed="0.00" departDelay="0.80" arrival="90.00" arrivalLane="center_to_N_0" arrivalPos="486.40" arrivalSpeed="12.71" duration="46.00" routeLength="545.78" waitingTime="0.00" waitingCount="0" stopTime="0.00" timeLoss="5.03" rerouteNo="0" devices="tripinfo_N_thru_f1.3" vType="car" speedFactor="0.97" vaporized=""/>
    <tripinfo id="N_thru_f2.3" depart="44.00" departLane="N_thru_2_0" departPos="5.10" departSpeed="0.00" departDelay="0.80" arrival="94.00" arrivalLane="center_to_N_0" arrivalPos="486.40" arrivalSpeed="11.71" duration="50.00" routeLength="545.12" waitingTime="0.00" waitingCount="0" stopTime="0.00" timeLoss="5.17" rerouteNo="0" devices="tripinfo_N_thru_f2.3" vType="car" speedFactor="0.89" vaporized=""/>
    <tripinfo id="S_thru_f2.3" depart="44.00" departLane="S_thru_2_0" departPos="5.10" departSpeed="0.00" departDelay="0.80" arrival="94.00" arrivalLane="center_to_S_0" arrivalPos="486.40" arrivalSpeed="11.26" duration="50.00" routeLength="545.12" waitingTime="0.00" waitingCount="0" stopTime="0.00" timeLoss="4.90" rerouteNo="0" devices="tripinfo_S_thru_f2.3" vType="car" speedFactor="0.87" vaporized=""/>
    <tripinfo id="S_left_f.2" depart="48.00" departLane="S_left_0" departPos="5.10" departSpeed="0.00" departDelay="0.00" arrival="95.00" arrivalLane="center_to_E_0" arrivalPos="486.40" arrivalSpeed="11.89" duration="47.00" routeLength="532.27" waitingTime="0.00" waitingCount="0" stopTime="0.00" timeLoss="5.85" rerouteNo="0" devices="tripinfo_S_left_f.2" vType="car" speedFactor="0.95" vaporized=""/>
    <tripinfo id="N_left_f.2" depart="48.00" departLane="N_left_0" departPos="5.10" departSpeed="0.00" departDelay="0.00" arrival="97.00" arrivalLane="center_to_W_0" arrivalPos="486.40" arrivalSpeed="12.27" duration="49.00" routeLength="532.27" waitingTime="0.00" waitingCount="0" stopTime="0.00" timeLoss="5.88" rerouteNo="0" devices="tripinfo_N_left_f.2" vType="car" speedFactor="0.92" vaporized=""/>
    <tripinfo id="S_thru_f2.4" depart="58.00" departLane="S_thru_2_0" departPos="5.10" departSpeed="0.00" departDelay="0.40" arrival="97.00" arrivalLane="center_to_S_1" arrivalPos="486.40" arrivalSpeed="15.58" duration="39.00" routeLength="545.12" waitingTime="0.00" waitingCount="0" stopTime="0.00" timeLoss="4.82" rerouteNo="0" devices="tripinfo_S_thru_f2.4" vType="car" speedFactor="1.15" vaporized=""/>
    <tripinfo id="S_thru_f1.3" depart="44.00" departLane="S_thru_1_0" departPos="5.10" departSpeed="0.00" departDelay="0.80" arrival="98.00" arrivalLane="center_to_S_0" arrivalPos="486.40" arrivalSpeed="10.36" duration="54.00" routeLength="545.78" waitingTime="0.00" waitingCount="0" stopTime="0.00" timeLoss="6.00" rerouteNo="0" devices="tripinfo_S_thru_f1.3" vType="car" speedFactor="0.83" vaporized=""/>
    <tripinfo id="N_thru_f1.4" depart="58.00" departLane="N_thru_1_0" departPos="5.10" departSpeed="0.00" departDelay="0.40" arrival="98.00" arrivalLane="center_to_N_0" arrivalPos="486.40" arrivalSpeed="14.64" duration="40.00" routeLength="545.78" waitingTime="0.00" waitingCount="0" stopTime="0.00" timeLoss="4.60" rerouteNo="0" devices="tripinfo_N_thru_f1.4" vType="car" speedFactor="1.13" vaporized=""/>
    <tripinfo id="S_thru_f1.4" depart="58.00" departLane="S_thru_1_0" departPos="5.10" departSpeed="0.00" departDelay="0.40" arrival="98.00" arrivalLane="center_to_S_2" arrivalPos="486.40" arrivalSpeed="15.80" duration="40.00" routeLength="545.78" waitingTime="0.00" waitingCount="0" stopTime="0.00" timeLoss="6.66" rerouteNo="0" devices="tripinfo_S_thru_f1.4" vType="car" speedFactor="1.18" vaporized=""/>
    <tripinfo id="N_thru_f2.4" depart="58.00" departLane="N_thru_2_0" departPos="5.10" departSpeed="0.00" departDelay="0.40" arrival="105.00" arrivalLane="center_to_N_0" arrivalPos="486.40" arrivalSpeed="11.88" duration="47.00" routeLength="545.12" waitingTime="0.00" waitingCount="0" stopTime="0.00" timeLoss="4.84" rerouteNo="0" devices="tripinfo_N_thru_f2.4" vType="car" speedFactor="0.93" vaporized=""/>
    <tripinfo id="N_thru_f2.5" depart="72.00" departLane="N_thru_2_0" departPos="5.10" departSpeed="0.00" departDelay="0.00" arrival="111.00" arrivalLane="center_to_N_0" arrivalPos="486.40" arrivalSpeed="15.51" duration="39.00" routeLength="545.12" waitingTime="0.00" waitingCount="0" stopTime="0.00" timeLoss="4.93" rerouteNo="0" devices="tripinfo_N_thru_f2.5" vType="car" speedFactor="1.17" vaporized=""/>
    <tripinfo id="N_thru_f1.5" depart="72.00" departLane="N_thru_1_0" departPos="5.10" departSpeed="0.00" departDelay="0.00" arrival="116.00" arrivalLane="center_to_N_0" arrivalPos="486.40" arrivalSpeed="12.77" duration="44.00" routeLength="545.78" waitingTime="0.00" waitingCount="0" stopTime="0.00" timeLoss="4.52" rerouteNo="0" devices="tripinfo_N_thru_f1.5" vType="car" speedFactor="1.01" vaporized=""/>
    <tripinfo id="S_thru_f2.5" depart="72.00" departLane="S_thru_2_0" departPos="5.10" departSpeed="0.00" departDelay="0.00" arrival="116.00" arrivalLane="center_to_S_1" arrivalPos="486.40" arrivalSpeed="14.14" duration="44.00" routeLength="545.12" waitingTime="0.00" waitingCount="0" stopTime="0.00" timeLoss="4.78" rerouteNo="0" devices="tripinfo_S_thru_f2.5" vType="car" speedFactor="1.02" vaporized=""/>
    <tripinfo id="N_left_f.3" depart="72.00" departLane="N_left_0" departPos="5.10" departSpeed="0.00" departDelay="0.00" arrival="116.00" arrivalLane="center_to_W_0" arrivalPos="486.40" arrivalSpeed="14.25" duration="44.00" routeLength="532.27" waitingTime="0.00" waitingCount="0" stopTime="0.00" timeLoss="5.41" rerouteNo="0" devices="tripinfo_N_left_f.3" vType="car" speedFactor="1.03" vaporized=""/>
    <tripinfo id="S_thru_f1.5" depart="72.00" departLane="S_thru_1_0" departPos="5.10" departSpeed="0.00" departDelay="0.00" arrival="117.00" arrivalLane="center_to_S_0" arrivalPos="486.40" arrivalSpeed="12.55" duration="45.00" routeLength="545.78" waitingTime="0.00" waitingCount="0" stopTime="0.00" timeLoss="4.96" rerouteNo="0" devices="tripinfo_S_thru_f1.5" vType="car" speedFactor="0.99" vaporized=""/>
    <tripinfo id="S_left_f.3" depart="72.00" departLane="S_left_0" departPos="5.10" departSpeed="0.00" departDelay="0.00" arrival="119.00" arrivalLane="center_to_E_0" arrivalPos="486.40" arrivalSpeed="12.82" duration="47.00" routeLength="532.27" waitingTime="0.00" waitingCount="0" stopTime="0.00" timeLoss="6.11" rerouteNo="0" devices="tripinfo_S_left_f.3" vType="car" speedFactor="0.96" vaporized=""/>
    <tripinfo id="N_thru_f1.6" depart="87.00" departLane="N_thru_1_0" departPos="5.10" departSpeed="0.00" departDelay="0.60" arrival="128.00" arrivalLane="center_to_N_0" arrivalPos="486.40" arrivalSpeed="15.00" duration="41.00" routeLength="545.78" waitingTime="0.00" waitingCount="0" stopTime="0.00" timeLoss="4.74" rerouteNo="0" devices="tripinfo_N_thru_f1.6" vType="car" speedFactor="1.09" vaporized=""/>
    <tripinfo id="S_thru_f2.6" depart="87.00" departLane="S_thru_2_0" departPos="5.10" departSpeed="0.00" departDelay="0.60" arrival="129.00" arrivalLane="center_to_S_0" arrivalPos="486.40" arrivalSpeed="14.05" duration="42.00" routeLength="545.12" waitingTime="0.00" waitingCount="0" stopTime="0.00" timeLoss="5.08" rerouteNo="0" devices="tripinfo_S_thru_f2.6" vType="car" speedFactor="1.09" vaporized=""/>
    <tripinfo id="N_thru_f2.6" depart="87.00" departLane="N_thru_2_0" departPos="5.10" departSpeed="0.00" departDelay="0.60" arrival="130.00" arrivalLane="center_to_N_1" arrivalPos="486.40" arrivalSpeed="13.97" duration="43.00" routeLength="545.12" waitingTime="0.00" waitingCount="0" stopTime="0.00" timeLoss="4.89" rerouteNo="0" devices="tripinfo_N_thru_f2.6" vType="car" speedFactor="1.04" vaporized=""/>
    <tripinfo id="S_thru_f1.6" depart="87.00" departLane="S_thru_1_0" departPos="5.10" departSpeed="0.00" departDelay="0.60" arrival="131.00" arrivalLane="center_to_S_0" arrivalPos="486.40" arrivalSpeed="13.95" duration="44.00" routeLength="545.78" waitingTime="0.00" waitingCount="0" stopTime="0.00" timeLoss="5.83" rerouteNo="0" devices="tripinfo_S_thru_f1.6" vType="car" speedFactor="1.04" vaporized=""/>
    <tripinfo id="E_thru_f1.0" depart="0.00" departLane="E_thru_1_0" departPos="5.10" departSpeed="0.00" departDelay="0.00" arrival="137.00" arrivalLane="center_to_E_0" arrivalPos="486.40" arrivalSpeed="13.24" duration="137.00" routeLength="545.12" waitingTime="90.00" waitingCount="1" stopTime="0.00" timeLoss="98.39" rerouteNo="0" devices="tripinfo_E_thru_f1.0" vType="car" speedFactor="1.03" vaporized=""/>
    <tripinfo id="W_thru_f1.0" depart="0.00" departLane="W_thru_1_0" departPos="5.10" departSpeed="0.00" departDelay="0.00" arrival="137.00" arrivalLane="center_to_W_0" arrivalPos="486.40" arrivalSpeed="13.76" duration="137.00" routeLength="545.12" waitingTime="90.00" waitingCount="1" stopTime="0.00" timeLoss="98.67" rerouteNo="0" devices="tripinfo_W_thru_f1.0" vType="car" speedFactor="1.05" vaporized=""/>
    <tripinfo id="W_thru_f1.1" depart="72.00" departLane="W_thru_1_0" departPos="5.10" departSpeed="0.00" departDelay="0.00" arrival="137.00" arrivalLane="center_to_W_1" arrivalPos="486.40" arrivalSpeed="15.04" duration="65.00" routeLength="545.12" waitingTime="19.00" waitingCount="1" stopTime="0.00" timeLoss="28.98" rerouteNo="0" devices="tripinfo_W_thru_f1.1" vType="car" speedFactor="1.10" vaporized=""/>
    <tripinfo id="E_thru_f2.1" depart="72.00" departLane="E_thru_2_0" departPos="5.10" departSpeed="0.00" departDelay="0.00" arrival="138.00" arrivalLane="center_to_E_2" arrivalPos="486.40" arrivalSpeed="15.72" duration="66.00" routeLength="544.90" waitingTime="18.00" waitingCount="1" stopTime="0.00" timeLoss="32.64" rerouteNo="0" devices="tripinfo_E_thru_f2.1" vType="car" speedFactor="1.18" vaporized=""/>
    <tripinfo id="S_thru_f2.7" depart="101.00" departLane="S_thru_2_0" departPos="5.10" departSpeed="0.00" departDelay="0.20" arrival="140.00" arrivalLane="center_to_S_0" arrivalPos="486.40" arrivalSpeed="15.51" duration="39.00" routeLength="545.12" waitingTime="0.00" waitingCount="0" stopTime="0.00" timeLoss="5.01" rerouteNo="0" devices="tripinfo_S_thru_f2.7" vType="car" speedFactor="1.17" vaporized=""/>
    <tripinfo id="E_thru_f1.1" depart="72.00" departLane="E_thru_1_0" departPos="5.10" departSpeed="0.00" departDelay="0.00" arrival="141.00" arrivalLane="center_to_E_0" arrivalPos="486.40" arrivalSpeed="13.07" duration="69.00" routeLength="545.12" waitingTime="19.00" waitingCount="1" stopTime="0.00" timeLoss="28.41" rerouteNo="0" devices="tripinfo_E_thru_f1.1" vType="car" speedFactor="0.97" vaporized=""/>
    <tripinfo id="N_left_f.4" depart="96.00" departLane="N_left_0" departPos="5.10" departSpeed="0.00" departDelay="0.00" arrival="141.00" arrivalLane="center_to_W_0" arrivalPos="486.40" arrivalSpeed="13.36" duration="45.00" routeLength="532.27" waitingTime="0.00" waitingCount="0" stopTime="0.00" timeLoss="6.16" rerouteNo="0" devices="tripinfo_N_left_f.4" vType="car" speedFactor="1.00" vaporized=""/>
    <tripinfo id="W_thru_f2.0" depart="0.00" departLane="W_thru_2_0" departPos="5.10" departSpeed="0.00" departDelay="0.00" arrival="143.00" arrivalLane="center_to_W_0" arrivalPos="486.40" arrivalSpeed="11.68" duration="143.00" routeLength="544.90" waitingTime="88.00" waitingCount="1" stopTime="0.00" timeLoss="98.10" rerouteNo="0" devices="tripinfo_W_thru_f2.0" vType="car" speedFactor="0.89" vaporized=""/>
    <tripinfo id="W_thru_f2.1" depart="72.00" departLane="W_thru_2_0" departPos="5.10" departSpeed="0.00" departDelay="0.00" arrival="145.00" arrivalLane="center_to_W_0" arrivalPos="486.40" arrivalSpeed="12.46" duration="73.00" routeLength="544.90" waitingTime="18.00" waitingCount="1" stopTime="0.00" timeLoss="28.59" rerouteNo="0" devices="tripinfo_W_thru_f2.1" vType="car" speedFactor="0.90" vaporized=""/>
    <tripinfo id="E_thru_f2.0" depart="0.00" departLane="E_thru_2_0" departPos="5.10" departSpeed="0.00" departDelay="0.00" arrival="146.00" arrivalLane="center_to_E_1" arrivalPos="486.40" arrivalSpeed="11.26" duration="146.00" routeLength="544.90" waitingTime="88.00" waitingCount="1" stopTime="0.00" timeLoss="98.25" rerouteNo="0" devices="tripinfo_E_thru_f2.0" vType="car" speedFactor="0.83" vaporized=""/>
    <tripinfo id="S_left_f.4" depart="96.00" departLane="S_left_0" departPos="5.10" departSpeed="0.00" departDelay="0.00" arrival="146.00" arrivalLane="center_to_E_0" arrivalPos="486.40" arrivalSpeed="11.80" duration="50.00" routeLength="532.27" waitingTime="0.00" waitingCount="0" stopTime="0.00" timeLoss="5.96" rerouteNo="0" devices="tripinfo_S_left_f.4" vType="car" speedFactor="0.90" vaporized=""/>
    <tripinfo id="N_thru_f1.7" depart="101.00" departLane="N_thru_1_0" departPos="5.10" departSpeed="0.00" departDelay="0.20" arrival="151.00" arrivalLane="center_to_N_0" arrivalPos="486.40" arrivalSpeed="11.35" duration="50.00" routeLength="545.78" waitingTime="0.00" waitingCount="0" stopTime="0.00" timeLoss="4.88" rerouteNo="0" devices="tripinfo_N_thru_f1.7" vType="car" speedFactor="0.88" vaporized=""/>
    <tripinfo id="N_thru_f2.7" depart="101.00" departLane="N_thru_2_0" departPos="5.10" departSpeed="0.00" departDelay="0.20" arrival="153.00" arrivalLane="center_to_N_1" arrivalPos="486.40" arrivalSpeed="10.52" duration="52.00" routeLength="545.12" waitingTime="0.00" waitingCount="0" stopTime="0.00" timeLoss="5.41" rerouteNo="0" devices="tripinfo_N_thru_f2.7" vType="car" speedFactor="0.85" vaporized=""/>
    <tripinfo id="S_thru_f1.7" depart="101.00" departLane="S_thru_1_0" departPos="5.10" departSpeed="0.00" departDelay="0.20" arrival="153.00" arrivalLane="center_to_S_0" arrivalPos="486.40" arrivalSpeed="11.70" duration="52.00" routeLength="545.78" waitingTime="0.00" waitingCount="0" stopTime="0.00" timeLoss="5.59" rerouteNo="0" devices="tripinfo_S_thru_f1.7" vType="car" speedFactor="0.85" vaporized=""/>
    <tripinfo id="N_thru_f2.8" depart="116.00" departLane="N_thru_2_0" departPos="5.10" departSpeed="0.00" departDelay="0.80" arrival="157.00" arrivalLane="center_to_N_0" arrivalPos="486.40" arrivalSpeed="14.33" duration="41.00" routeLength="545.12" waitingTime="0.00" waitingCount="0" stopTime="0.00" timeLoss="4.56" rerouteNo="0" devices="tripinfo_N_thru_f2.8" vType="car" speedFactor="1.10" vaporized=""/>
    <tripinfo id="N_thru_f1.8" depart="116.00" departLane="N_thru_1_0" departPos="5.10" departSpeed="0.00" departDelay="0.80" arrival="159.00" arrivalLane="center_to_N_0" arrivalPos="486.40" arrivalSpeed="13.51" duration="43.00" routeLength="545.78" waitingTime="0.00" waitingCount="0" stopTime="0.00" timeLoss="4.15" rerouteNo="0" devices="tripinfo_N_thru_f1.8" vType="car" speedFactor="1.02" vaporized=""/>
    <tripinfo id="S_thru_f1.8" depart="116.00" departLane="S_thru_1_0" departPos="5.10" departSpeed="0.00" departDelay="0.80" arrival="161.00" arrivalLane="center_to_S_0" arrivalPos="486.40" arrivalSpeed="13.71" duration="45.00" routeLength="545.78" waitingTime="0.00" waitingCount="0" stopTime="0.00" timeLoss="4.97" rerouteNo="0" devices="tripinfo_S_thru_f1.8" vType="car" speedFactor="1.00" vaporized=""/>
    <tripinfo id="S_thru_f2.8" depart="116.00" departLane="S_thru_2_0" departPos="5.10" departSpeed="0.00" departDelay="0.80" arrival="161.00" arrivalLane="center_to_S_1" arrivalPos="486.40" arrivalSpeed="12.66" duration="45.00" routeLength="545.12" waitingTime="0.00" waitingCount="0" stopTime="0.00" timeLoss="4.90" rerouteNo="0" devices="tripinfo_S_thru_f2.8" vType="car" speedFactor="1.00" vaporized=""/>
    <tripinfo id="S_left_f.5" depart="120.00" departLane="S_left_0" departPos="5.10" departSpeed="0.00" departDelay="0.00" arrival="161.00" arrivalLane="center_to_E_0" arrivalPos="486.40" arrivalSpeed="15.36" duration="41.00" routeLength="532.27" waitingTime="0.00" waitingCount="0" stopTime="0.00" timeLoss="6.03" rerouteNo="0" devices="tripinfo_S_left_f.5" vType="car" speedFactor="1.14" vaporized=""/>
    <tripinfo id="N_left_f.5" depart="120.00" departLane="N_left_0" departPos="5.10" departSpeed="0.00" departDelay="0.00" arrival="170.00" arrivalLane="center_to_W_0" arrivalPos="486.40" arrivalSpeed="12.30" duration="50.00" routeLength="532.27" waitingTime="0.00" waitingCount="0" stopTime="0.00" timeLoss="6.41" rerouteNo="0" devices="tripinfo_N_left_f.5" vType="car" speedFactor="0.90" vaporized=""/>
    <tripinfo id="S_thru_f2.9" depart="130.00" departLane="S_thru_2_0" departPos="5.10" departSpeed="0.00" departDelay="0.40" arrival="170.00" arrivalLane="center_to_S_1" arrivalPos="486.40" arrivalSpeed="14.44" duration="40.00" routeLength="545.12" waitingTime="0.00" waitingCount="0" stopTime="0.00" timeLoss="4.94" rerouteNo="0" devices="tripinfo_S_thru_f2.9" vType="car" speedFactor="1.12" vaporized=""/>
    <tripinfo id="S_thru_f1.9" depart="130.00" departLane="S_thru_1_0" departPos="5.10" departSpeed="0.00" departDelay="0.40" arrival="171.00" arrivalLane="center_to_S_0" arrivalPos="486.40" arrivalSpeed="14.43" duration="41.00" routeLength="545.78" waitingTime="0.00" waitingCount="0" stopTime="0.00" timeLoss="4.30" rerouteNo="0" devices="tripinfo_S_thru_f1.9" vType="car" speedFactor="1.08" vaporized=""/>
    <tripinfo id="N_thru_f1.9" depart="130.00" departLane="N_thru_1_0" departPos="5.10" departSpeed="0.00" departDelay="0.40" arrival="174.00" arrivalLane="center_to_N_0" arrivalPos="486.40" arrivalSpeed="13.86" duration="44.00" routeLength="545.78" waitingTime="0.00" waitingCount="0" stopTime="0.00" timeLoss="4.95" rerouteNo="0" devices="tripinfo_N_thru_f1.9" vType="car" speedFactor="1.02" vaporized=""/>
    <tripinfo id="N_thru_f2.9" depart="130.00" departLane="N_thru_2_0" departPos="5.10" departSpeed="0.00" departDelay="0.40" arrival="176.00" arrivalLane="center_to_N_1" arrivalPos="486.40" arrivalSpeed="12.29" duration="46.00" routeLength="545.12" waitingTime="0.00" waitingCount="0" stopTime="0.00" timeLoss="4.69" rerouteNo="0" devices="tripinfo_N_thru_f2.9" vType="car" speedFactor="0.97" vaporized=""/>
    <tripinfo id="W_left_f.1" depart="144.00" departLane="W_left_0" departPos="5.10" departSpeed="0.00" departDelay="0.00" arrival="187.00" arrivalLane="center_to_S_1" arrivalPos="486.40" arrivalSpeed="14.08" duration="43.00" routeLength="537.05" waitingTime="0.00" waitingCount="0" stopTime="0.00" timeLoss="5.57" rerouteNo="0" devices="tripinfo_W_left_f.1" vType="car" speedFactor="1.06" vaporized=""/>
    <tripinfo id="N_thru_f1.10" depart="144.00" departLane="N_thru_1_0" departPos="5.10" departSpeed="0.00" departDelay="0.00" arrival="188.00" arrivalLane="center_to_N_0" arrivalPos="486.40" arrivalSpeed="13.14" duration="44.00" routeLength="545.78" waitingTime="0.00" waitingCount="0" stopTime="0.00" timeLoss="5.30" rerouteNo="0" devices="tripinfo_N_thru_f1.10" vType="car" speedFactor="1.02" vaporized=""/>
    <tripinfo id="N_left_f.6" depart="144.00" departLane="N_left_0" departPos="5.10" departSpeed="0.00" departDelay="0.00" arrival="189.00" arrivalLane="center_to_W_0" arrivalPos="486.40" arrivalSpeed="13.51" duration="45.00" routeLength="532.27" waitingTime="0.00" waitingCount="0" stopTime="0.00" timeLoss="6.03" rerouteNo="0" devices="tripinfo_N_left_f.6" vType="car" speedFactor="1.02" vaporized=""/>
    <tripinfo id="N_thru_f2.10" depart="144.00" departLane="N_thru_2_0" departPos="5.10" departSpeed="0.00" departDelay="0.00" arrival="190.00" arrivalLane="center_to_N_1" arrivalPos="486.40" arrivalSpeed="12.83" duration="46.00" routeLength="545.12" waitingTime="0.00" waitingCount="0" stopTime="0.00" timeLoss="5.45" rerouteNo="0" devices="tripinfo_N_thru_f2.10" vType="car" speedFactor="0.99" vaporized=""/>
    <tripinfo id="S_left_f.6" depart="144.00" departLane="S_left_0" departPos="5.10" departSpeed="0.00" departDelay="0.00" arrival="190.00" arrivalLane="center_to_E_0" arrivalPos="486.40" arrivalSpeed="13.33" duration="46.00" routeLength="532.27" waitingTime="0.00" waitingCount="0" stopTime="0.00" timeLoss="5.53" rerouteNo="0" devices="tripinfo_S_left_f.6" vType="car" speedFactor="0.97" vaporized=""/>
    <tripinfo id="S_thru_f1.10" depart="144.00" departLane="S_thru_1_0" departPos="5.10" departSpeed="0.00" departDelay="0.00" arrival="191.00" arrivalLane="center_to_S_0" arrivalPos="486.40" arrivalSpeed="12.63" duration="47.00" routeLength="545.78" waitingTime="0.00" waitingCount="0" stopTime="0.00" timeLoss="4.73" rerouteNo="0" devices="tripinfo_S_thru_f1.10" vType="car" speedFactor="0.94" vaporized=""/>
    <tripinfo id="E_left_f.1" depart="144.00" departLane="E_left_0" departPos="5.10" departSpeed="0.00" departDelay="0.00" arrival="191.00" arrivalLane="center_to_N_2" arrivalPos="486.40" arrivalSpeed="12.90" duration="47.00" routeLength="537.05" waitingTime="0.00" waitingCount="0" stopTime="0.00" timeLoss="5.11" rerouteNo="0" devices="tripinfo_E_left_f.1" vType="car" speedFactor="0.94" vaporized=""/>
    <tripinfo id="S_thru_f2.10" depart="144.00" departLane="S_thru_2_0" departPos="5.10" departSpeed="0.00" departDelay="0.00" arrival="194.00" arrivalLane="center_to_S_0" arrivalPos="486.40" arrivalSpeed="10.97" duration="50.00" routeLength="545.12" waitingTime="0.00" waitingCount="0" stopTime="0.00" timeLoss="5.30" rerouteNo="0" devices="tripinfo_S_thru_f2.10" vType="car" speedFactor="0.88" vaporized=""/>