<?xml version="1.0" encoding="UTF-8"?>

<!-- generated on 2026-04-04T12:58:37.720448-05:00 by Eclipse SUMO sumo 1.25.0
<sumoConfiguration xmlns:xsi="http://www.w3.org/2001/XMLSchema-instance" xsi:noNamespaceSchemaLocation="http://sumo.dlr.de/xsd/sumoConfiguration.xsd">

    <input>
        <net-file value="/home/gribel/Capstone/sumo/network/intersection.net.xml"/>
        <route-files value="/home/gribel/Capstone/sumo/demand/morning_rush.rou.xml"/>
    </input>

    <output>
        <tripinfo-output value="/home/gribel/Capstone/sumo/config/tripinfo.xml"/>
        <tripinfo-output.write-unfinished value="true"/>
    </output>

    <time>
        <step-length value="1.0"/>
    </time>

    <processing>
        <no-internal-links value="false"/>
        <time-to-teleport value="300"/>
        <max-depart-delay value="60"/>
    </processing>

    <report>
        <no-step-log value="true"/>
    </report>

    <traci_server>
        <remote-port value="8813"/>
    </traci_server>

    <gui_only>
        <quit-on-end value="true"/>
    </gui_only>

</sumoConfiguration>
-->

<tripinfos xmlns:xsi="http://www.w3.org/2001/XMLSchema-instance" xsi:noNamespaceSchemaLocation="http://sumo.dlr.de/xsd/tripinfo_file.xsd">
    <tripinfo id="S_thru_f2.0" depart="0.00" departLane="S_thru_2_0" departPos="5.10" departSpeed="0.00" departDelay="0.00" arrival="41.00" arrivalLane="center_to_S_0" arrivalPos="486.40" arrivalSpeed="14.87" duration="41.00" routeLength="545.12" waitingTime="0.00" waitingCount="0" stopTime="0.00" timeLoss="4.34" rerouteNo="0" devices="tripinfo_S_thru_f2.0" vType="car" speedFactor="1.08" vaporized=""/>
    <tripinfo id="N_thru_f1.0" depart="0.00" departLane="N_thru_1_0" departPos="5.10" departSpeed="0.00" departDelay="0.00" arrival="42.00" arrivalLane="center_to_N_0" arrivalPos="486.40" arrivalSpeed="14.49" duration="42.00" routeLength="545.78" waitingTime="0.00" waitingCount="0" stopTime="0.00" timeLoss="4.53" rerouteNo="0" devices="tripinfo_N_thru_f1.0" vType="car" speedFactor="1.06" vaporized=""/>
    <tripinfo id="E_left_f.0" depart="0.00" departLane="E_left_0" departPos="5.10" departSpeed="0.00" departDelay="0.00" arrival="42.00" arrivalLane="center_to_N_1" arrivalPos="486.40" arrivalSpeed="14.25" duration="42.00" routeLength="537.05" waitingTime="0.00" waitingCount="0" stopTime="0.00" timeLoss="5.33" rerouteNo="0" devices="tripinfo_E_left_f.0" vType="car" speedFactor="1.09" vaporized=""/>
    <tripinfo id="W_left_f.0" depart="0.00" departLane="W_left_0" departPos="5.10" departSpeed="0.00" departDelay="0.00" arrival="44.00" arrivalLane="center_to_S_1" arrivalPos="486.40" arrivalSpeed="13.49" duration="44.00" routeLength="537.05" waitingTime="0.00" waitingCount="0" stopTime="0.00" timeLoss="5.22" rerouteNo="0" devices="tripinfo_W_left_f.0" vType="car" speedFactor="1.03" vaporized=""/>
    <tripinfo id="S_thru_f1.0" depart="0.00" departLane="S_thru_1_0" departPos="5.10" departSpeed="0.00" departDelay="0.00" arrival="45.00" arrivalLane="center_to_S_0" arrivalPos="486.40" arrivalSpeed="13.50" duration="45.00" routeLength="545.78" waitingTime="0.00" waitingCount="0" stopTime="0.00" timeLoss="5.55" rerouteNo="0" devices="tripinfo_S_thru_f1.0" vType="car" speedFactor="1.01" vaporized=""/>
    <tripinfo id="N_thru_f2.0" depart="0.00" departLane="N_thru_2_0" departPos="5.10" departSpeed="0.00" departDelay="0.00" arrival="47.00" arrivalLane="center_to_N_0" arrivalPos="486.40" arrivalSpeed="13.01" duration="47.00" routeLength="545.12" waitingTime="0.00" waitingCount="0" stopTime="0.00" timeLoss="4.87" rerouteNo="0" devices="tripinfo_N_thru_f2.0" vType="car" speedFactor="0.94" vaporized=""/>
    <tripinfo id="N_left_f.0" depart="0.00" departLane="N_left_0" departPos="5.10" departSpeed="0.00" departDelay="0.00" arrival="48.00" arrivalLane="center_to_W_0" arrivalPos="486.40" arrivalSpeed="12.30" duration="48.00" routeLength="532.27" waitingTime="0.00" waitingCount="0" stopTime="0.00" timeLoss="5.96" rerouteNo="0" devices="tripinfo_N_left_f.0" vType="car" speedFactor="0.94" vaporized=""/>
    <tripinfo id="S_left_f.0" depart="0.00" departLane="S_left_0" departPos="5.10" departSpeed="0.00" departDelay="0.00" arrival="51.00" arrivalLane="center_to_E_0" arrivalPos="486.40" arrivalSpeed="11.78" duration="51.00" routeLength="532.27" waitingTime="0.00" waitingCount="0" stopTime="0.00" timeLoss="5.28" rerouteNo="0" devices="tripinfo_S_left_f.0" vType="car" speedFactor="0.86" vaporized=""/>
    <tripinfo id="N_thru_f2.1" depart="12.00" departLane="N_thru_2_0" departPos="5.10" departSpeed="0.00" departDelay="0.00" arrival="52.00" arrivalLane="center_to_N_0" arrivalPos="486.40" arrivalSpeed="14.30" duration="40.00" routeLength="545.12" waitingTime="0.00" waitingCount="0" stopTime="0.00" timeLoss="4.82" rerouteNo="0" devices="tripinfo_N_thru_f2.1" vType="car" speedFactor="1.12" vaporized=""/>
    <tripinfo id="N_thru_f1.1" depart="12.00" departLane="N_thru_1_0" departPos="5.10" departSpeed="0.00" departDelay="0.00" arrival="55.00" arrivalLane="center_to_N_0" arrivalPos="486.40" arrivalSpeed="14.02" duration="43.00" routeLength="545.78" waitingTime="0.00" waitingCount="0" stopTime="0.00" timeLoss="5.09" rerouteNo="0" devices="tripinfo_N_thru_f1.1" vType="car" speedFactor="1.05" vaporized=""/>
    <tripinfo id="N_thru_f1.2" depart="24.00" departLane="N_thru_1_0" departPos="5.10" departSpeed="0.00" departDelay="0.00" arrival="69.00" arrivalLane="center_to_N_0" arrivalPos="486.40" arrivalSpeed="13.30" duration="45.00" routeLength="545.78" waitingTime="0.00" waitingCount="0" stopTime="0.00" timeLoss="5.35" rerouteNo="0" devices="tripinfo_N_thru_f1.2" vType="car" speedFactor="0.99" vaporized=""/>
    <tripinfo id="N_thru_f2.2" depart="24.00" departLane="N_thru_2_0" departPos="5.10" departSpeed="0.00" departDelay="0.00" arrival="71.00" arrivalLane="center_to_N_0" arrivalPos="486.40" arrivalSpeed="12.32" duration="47.00" routeLength="545.12" waitingTime="0.00" waitingCount="0" stopTime="0.00" timeLoss="4.49" rerouteNo="0" devices="tripinfo_N_thru_f2.2" vType="car" speedFactor="0.93" vaporized=""/>
    <tripinfo id="N_left_f.1" depart="24.00" departLane="N_left_0" departPos="5.10" departSpeed="0.00" departDelay="0.00" arrival="75.00" arrivalLane="center_to_W_0" arrivalPos="486.40" arrivalSpeed="11.43" duration="51.00" routeLength="532.27" waitingTime="0.00" waitingCount="0" stopTime="0.00" timeLoss="6.02" rerouteNo="0" devices="tripinfo_N_left_f.1" vType="car" speedFactor="0.88" vaporized=""/>
    <tripinfo id="S_thru_f1.1" depart="36.00" departLane="S_thru_1_0" departPos="5.10" departSpeed="0.00" departDelay="0.00" arrival="75.00" arrivalLane="center_to_S_0" arrivalPos="486.40" arrivalSpeed="14.81" duration="39.00" routeLength="545.78" waitingTime="0.00" waitingCount="0" stopTime="0.00" timeLoss="4.45" rerouteNo="0" devices="tripinfo_S_thru_f1.1" vType="car" speedFactor="1.16" vaporized=""/>
    <tripinfo id="S_thru_f2.1" depart="36.00" departLane="S_thru_2_0" departPos="5.10" departSpeed="0.00" departDelay="0.00" arrival="80.00" arrivalLane="center_to_S_0" arrivalPos="486.40" arrivalSpeed="13.24" duration="44.00" routeLength="545.12" waitingTime="0.00" waitingCount="0" stopTime="0.00" timeLoss="4.58" rerouteNo="0" devices="tripinfo_S_thru_f2.1" vType="car" speedFactor="1.02" vaporized=""/>
    <tripinfo id="N_thru_f1.3" depart="36.00" departLane="N_thru_1_0" departPos="5.10" departSpeed="0.00" departDelay="0.00" arrival="83.00" arrivalLane="center_to_N_0" arrivalPos="486.40" arrivalSpeed="11.94" duration="47.00" routeLength="545.78" waitingTime="0.00" waitingCount="0" stopTime="0.00" timeLoss="4.52" rerouteNo="0" devices="tripinfo_N_thru_f1.3" vType="car" speedFactor="0.94" vaporized=""/>
    <tripinfo id="N_thru_f2.3" depart="36.00" departLane="N_thru_2_0" departPos="5.10" departSpeed="0.00" departDelay="0.00" arrival="84.00" arrivalLane="center_to_N_1" arrivalPos="486.40" arrivalSpeed="12.62" duration="48.00" routeLength="545.12" waitingTime="0.00" waitingCount="0" stopTime="0.00" timeLoss="5.54" rerouteNo="0" devices="tripinfo_N_thru_f2.3" vType="car" speedFactor="0.94" vaporized=""/>
    <tripinfo id="N_left_f.2" depart="48.00" departLane="N_left_0" departPos="5.10" departSpeed="0.00" departDelay="0.00" arrival="95.00" arrivalLane="center_to_W_0" arrivalPos="486.40" arrivalSpeed="12.86" duration="47.00" routeLength="532.27" waitingTime="0.00" waitingCount="0" stopTime="0.00" timeLoss="5.65" rerouteNo="0" devices="tripinfo_N_left_f.2" vType="car" speedFactor="0.95" vaporized=""/>
    <tripinfo id="N_thru_f2.4" depart="48.00" departLane="N_thru_2_0" departPos="5.10" departSpeed="0.00" departDelay="0.00" arrival="96.00" arrivalLane="center_to_N_0" arrivalPos="486.40" arrivalSpeed="11.96" duration="48.00" routeLength="545.12" waitingTime="0.00" waitingCount="0" stopTime="0.00" timeLoss="4.83" rerouteNo="0" devices="tripinfo_N_thru_f2.4" vType="car" speedFactor="0.92" vaporized=""/>
    <tripinfo id="N_thru_f1.4" depart="48.00" departLane="N_thru_1_0" departPos="5.10" departSpeed="0.00" departDelay="0.00" arrival="98.00" arrivalLane="center_to_N_0" arrivalPos="486.40" arrivalSpeed="11.34" duration="50.00" routeLength="545.78" waitingTime="0.00" waitingCount="0" stopTime="0.00" timeLoss="4.75" rerouteNo="0" devices="tripinfo_N_thru_f1.4" vType="car" speedFactor="0.87" vaporized=""/>
    <tripinfo id="N_thru_f1.5" depart="60.00" departLane="N_thru_1_0" departPos="5.10" departSpeed="0.00" departDelay="0.00" arrival="100.00" arrivalLane="center_to_N_0" arrivalPos="486.40" arrivalSpeed="15.00" duration="40.00" routeLength="545.78" waitingTime="0.00" waitingCount="0" stopTime="0.00" timeLoss="4.91" rerouteNo="0" devices="tripinfo_N_thru_f1.5" vType="car" speedFactor="1.13" vaporized=""/>
    <tripinfo id="N_thru_f2.5" depart="60.00" departLane="N_thru_2_0" departPos="5.10" departSpeed="0.00" departDelay="0.00" arrival="107.00" arrivalLane="center_to_N_0" arrivalPos="486.40" arrivalSpeed="11.69" duration="47.00" routeLength="545.12" waitingTime="0.00" waitingCount="0" stopTime="0.00" timeLoss="4.67" rerouteNo="0" devices="tripinfo_N_thru_f2.5" vType="car" speedFactor="0.93" vaporized=""/>
    <tripinfo id="N_thru_f1.6" depart="72.00" departLane="N_thru_1_0" departPos="5.10" departSpeed="0.00" departDelay="0.00" arrival="110.00" arrivalLane="center_to_N_0" arrivalPos="486.40" arrivalSpeed="15.50" duration="38.00" routeLength="545.78" waitingTime="0.00" waitingCount="0" stopTime="0.00" timeLoss="4.61" rerouteNo="0" devices="tripinfo_N_thru_f1.6" vType="car" speedFactor="1.18" vaporized=""/>
    <tripinfo id="S_thru_f2.2" depart="72.00" departLane="S_thru_2_0" departPos="5.10" departSpeed="0.00" departDelay="0.00" arrival="110.00" arrivalLane="center_to_S_0" arrivalPos="486.40" arrivalSpeed="16.20" duration="38.00" routeLength="545.12" waitingTime="0.00" waitingCount="0" stopTime="0.00" timeLoss="4.50" rerouteNo="0" devices="tripinfo_S_thru_f2.2" vType="car" speedFactor="1.17" vaporized=""/>
    <tripinfo id="N_thru_f2.6" depart="72.00" departLane="N_thru_2_0" departPos="5.10" departSpeed="0.00" departDelay="0.00" arrival="112.00" arrivalLane="center_to_N_1" arrivalPos="486.40" arrivalSpeed="15.29" duration="40.00" routeLength="545.12" waitingTime="0.00" waitingCount="0" stopTime="0.00" timeLoss="5.20" rerouteNo="0" devices="tripinfo_N_thru_f2.6" vType="car" speedFactor="1.15" vaporized=""/>
    <tripinfo id="N_left_f.3" depart="72.00" departLane="N_left_0" departPos="5.10" departSpeed="0.00" departDelay="0.00" arrival="113.00" arrivalLane="center_to_W_0" arrivalPos="486.40" arrivalSpeed="15.17" duration="41.00" routeLength="532.27" waitingTime="0.00" waitingCount="0" stopTime="0.00" timeLoss="5.74" rerouteNo="0" devices="tripinfo_N_left_f.3" vType="car" speedFactor="1.10" vaporized=""/>
    <tripinfo id="S_thru_f1.2" depart="72.00" departLane="S_thru_1_0" departPos="5.10" departSpeed="0.00" departDelay="0.00" arrival="116.00" arrivalLane="center_to_S_0" arrivalPos="486.40" arrivalSpeed="13.38" duration="44.00" routeLength="545.78" waitingTime="0.00" waitingCount="0" stopTime="0.00" timeLoss="4.40" rerouteNo="0" devices="tripinfo_S_thru_f1.2" vType="car" speedFactor="1.01" vaporized=""/>
    <tripinfo id="E_left_f.1" depart="72.00" departLane="E_left_0" departPos="5.10" departSpeed="0.00" departDelay="0.00" arrival="116.00" arrivalLane="center_to_N_1" arrivalPos="486.40" arrivalSpeed="13.02" duration="44.00" routeLength="537.05" waitingTime="0.00" waitingCount="0" stopTime="0.00" timeLoss="5.10" rerouteNo="0" devices="tripinfo_E_left_f.1" vType="car" speedFactor="1.03" vaporized=""/>
    <tripinfo id="W_left_f.1" depart="72.00" departLane="W_left_0" departPos="5.10" departSpeed="0.00" departDelay="0.00" arrival="119.00" arrivalLane="center_to_S_0" arrivalPos="486.40" arrivalSpeed="12.78" duration="47.00" routeLength="537.05" waitingTime="0.00" waitingCount="0" stopTime="0.00" timeLoss="5.79" rerouteNo="0" devices="tripinfo_W_left_f.1" vType="car" speedFactor="0.96" vaporized=""/>
    <tripinfo id="S_left_f.1" depart="72.00" departLane="S_left_0" departPos="5.10" departSpeed="0.00" departDelay="0.00" arrival="122.00" arrivalLane="center_to_E_0" arrivalPos="486.40" arrivalSpeed="12.24" duration="50.00" routeLength="532.27" waitingTime="0.00" waitingCount="0" stopTime="0.00" timeLoss="5.72" rerouteNo="0" devices="tripinfo_S_left_f.1" vType="car" speedFactor="0.90" vaporized=""/>
    <tripinfo id="N_thru_f1.7" depart="84.00" departLane="N_thru_1_0" departPos="5.10" departSpeed="0.00" departDelay="0.00" arrival="126.00" arrivalLane="center_to_N_0" arrivalPos="486.40" arrivalSpeed="14.76" duration="42.00" routeLength="545.78" waitingTime="0.00" waitingCount="0" stopTime="0.00" timeLoss="5.06" rerouteNo="0" devices="tripinfo_N_thru_f1.7" vType="car" speedFactor="1.09" vaporized=""/>
    <tripinfo id="N_thru_f2.7" depart="84.00" departLane="N_thru_2_0" departPos="5.10" departSpeed="0.00" departDelay="0.00" arrival="127.00" arrivalLane="center_to_N_1" arrivalPos="486.40" arrivalSpeed="14.09" duration="43.00" routeLength="545.12" waitingTime="0.00" waitingCount="0" stopTime="0.00" timeLoss="4.79" rerouteNo="0" devices="tripinfo_N_thru_f2.7" vType="car" speedFactor="1.04" vaporized=""/>
    <tripinfo id="N_thru_f2.8" depart="96.00" departLane="N_thru_2_0" departPos="5.10" departSpeed="0.00" departDelay="0.00" arrival="137.00" arrivalLane="center_to_N_1" arrivalPos="486.40" arrivalSpeed="14.66" duration="41.00" routeLength="545.12" waitingTime="0.00" waitingCount="0" stopTime="0.00" timeLoss="4.79" rerouteNo="0" devices="tripinfo_N_thru_f2.8" vType="car" speedFactor="1.09" vaporized=""/>
    <tripinfo id="N_thru_f1.8" depart="96.00" departLane="N_thru_1_0" departPos="5.10" departSpeed="0.00" departDelay="0.00" arrival="138.00" arrivalLane="center_to_N_0" arrivalPos="486.40" arrivalSpeed="13.47" duration="42.00" routeLength="545.78" waitingTime="0.00" waitingCount="0" stopTime="0.00" timeLoss="4.25" rerouteNo="0" devices="tripinfo_N_thru_f1.8" vType="car" speedFactor="1.04" vaporized=""/>
    <tripinfo id="N_left_f.4" depart="96.00" departLane="N_left_0" departPos="5.10" departSpeed="0.00" departDelay="0.00" arrival="142.00" arrivalLane="center_to_W_0" arrivalPos="486.40" arrivalSpeed="13.37" duration="46.00" routeLength="532.27" waitingTime="0.00" waitingCount="0" stopTime="0.00" timeLoss="6.28" rerouteNo="0" devices="tripinfo_N_left_f.4" vType="car" speedFactor="1.00" vaporized=""/>
    <tripinfo id="N_thru_f1.9" depart="108.00" departLane="N_thru_1_0" departPos="5.10" departSpeed="0.00" departDelay="0.00" arrival="157.00" arrivalLane="center_to_N_0" arrivalPos="486.40" arrivalSpeed="11.22" duration="49.00" routeLength="545.78" waitingTime="0.00" waitingCount="0" stopTime="0.00" timeLoss="4.79" rerouteNo="0" devices="tripinfo_N_thru_f1.9" vType="car" speedFactor="0.90" vaporized=""/>
    <tripinfo id="N_thru_f2.9" depart="108.00" departLane="N_thru_2_0" departPos="5.10" departSpeed="0.00" departDelay="0.00" arrival="158.00" arrivalLane="center_to_N_1" arrivalPos="486.40" arrivalSpeed="12.06" duration="50.00" routeLength="545.12" waitingTime="0.00" waitingCount="0" stopTime="0.00" timeLoss="5.22" rerouteNo="0" devices="tripinfo_N_thru_f2.9" vType="car" speedFactor="0.88" vaporized=""/>
    <tripinfo id="S_thru_f1.3" depart="108.00" departLane="S_thru_1_0" departPos="5.10" departSpeed="0.00" departDelay="0.00" arrival="160.00" arrivalLane="center_to_S_0" arrivalPos="486.40" arrivalSpeed="11.40" duration="52.00" routeLength="545.78" waitingTime="0.00" waitingCount="0" stopTime="0.00" timeLoss="5.29" rerouteNo="0" devices="tripinfo_S_thru_f1.3" vType="car" speedFactor="0.85" vaporized=""/>
    <tripinfo id="S_thru_f2.3" depart="108.00" departLane="S_thru_2_0" departPos="5.10" departSpeed="0.00" departDelay="0.00" arrival="160.00" arrivalLane="center_to_S_1" arrivalPos="486.40" arrivalSpeed="10.69" duration="52.00" routeLength="545.12" waitingTime="0.00" waitingCount="0" stopTime="0.00" timeLoss="5.44" rerouteNo="0" devices="tripinfo_S_thru_f2.3" vType="car" speedFactor="0.85" vaporized=""/>
    <tripinfo id="N_left_f.5" depart="120.00" departLane="N_left_0" departPos="5.10" departSpeed="0.00" departDelay="0.00" arrival="161.00" arrivalLane="center_to_W_0" arrivalPos="486.40" arrivalSpeed="15.24" duration="41.00" routeLength="532.27" waitingTime="0.00" waitingCount="0" stopTime="0.00" timeLoss="5.82" rerouteNo="0" devices="tripinfo_N_left_f.5" vType="car" speedFactor="1.14" vaporized=""/>
    <tripinfo id="N_thru_f1.10" depart="120.00" departLane="N_thru_1_0" departPos="5.10" departSpeed="0.00" departDelay="0.00" arrival="165.00" arrivalLane="center_to_N_0" arrivalPos="486.40" arrivalSpeed="13.64" duration="45.00" routeLength="545.78" waitingTime="0.00" waitingCount="0" stopTime="0.00" timeLoss="4.98" rerouteNo="0" devices="tripinfo_N_thru_f1.10" vType="car" speedFactor="1.00" vaporized=""/>
    <tripinfo id="N_thru_f2.10" depart="120.00" departLane="N_thru_2_0" departPos="5.10" departSpeed="0.00" departDelay="0.00" arrival="170.00" arrivalLane="center_to_N_0" arrivalPos="486.40" arrivalSpeed="11.30" duration="50.00" routeLength="545.12" waitingTime="0.00" waitingCount="0" stopTime="0.00" timeLoss="5.46" rerouteNo="0" devices="tripinfo_N_thru_f2.10" vType="car" speedFactor="0.90" vaporized=""/>
    <tripinfo id="N_thru_f1.11" depart="132.00" departLane="N_thru_1_0" departPos="5.10" departSpeed="0.00" departDelay="0.00" arrival="177.00" arrivalLane="center_to_N_0" arrivalPos="486.40" arrivalSpeed="14.14" duration="45.00" routeLength="545.78" waitingTime="0.00" waitingCount="0" stopTime="0.00" timeLoss="5.93" rerouteNo="0" devices="tripinfo_N_thru_f1.11" vType="car" speedFactor="1.02" vaporized=""/>
    <tripinfo id="N_thru_f2.11" depart="132.00" departLane="N_thru_2_0" departPos="5.10" departSpeed="0.00" departDelay="0.00" arrival="177.00" arrivalLane="center_to_N_1" arrivalPos="486.40" arrivalSpeed="13.22" duration="45.00" routeLength="545.12" waitingTime="0.00" waitingCount="0" stopTime="0.00" timeLoss="4.39" rerouteNo="0" devices="tripinfo_N_thru_f2.11" vType="car" speedFactor="0.97" vaporized=""/>
    <tripinfo id="N_thru_f2.12" depart="144.00" departLane="N_thru_2_0" departPos="5.10" departSpeed="0.00" departDelay="0.00" arrival="184.00" arrivalLane="center_to_N_1" arrivalPos="486.40" arrivalSpeed="15.43" duration="40.00" routeLength="545.12" waitingTime="0.00" waitingCount="0" stopTime="0.00" timeLoss="4.94" rerouteNo="0" devices="tripinfo_N_thru_f2.12" vType="car" speedFactor="1.12" vaporized=""/>
    <tripinfo id="N_thru_f1.12" depart="144.00" departLane="N_thru_1_0" departPos="5.10" departSpeed="0.00" departDelay="0.00" arrival="185.00" arrivalLane="center_to_N_0" arrivalPos="486.40" arrivalSpeed="14.75" duration="41.00" routeLength="545.78" waitingTime="0.00" waitingCount="0" stopTime="0.00" timeLoss="4.43" rerouteNo="0" devices="tripinfo_N_thru_f1.12" vType="car" speedFactor="1.08" vaporized=""/>
    <tripinfo id="S_thru_f1.4" depart="144.00" departLane="S_thru_1_0" departPos="5.10" departSpeed="0.00" departDelay="0.00" arrival="188.00" arrivalLane="center_to_S_0" arrivalPos="486.40" arrivalSpeed="13.33" duration="44.00" routeLength="545.78" waitingTime="0.00" waitingCount="0" stopTime="0.00" timeLoss="5.27" rerouteNo="0" devices="tripinfo_S_thru_f1.4" vType="car" speedFactor="1.02" vaporized=""/>
    <tripinfo id="N_left_f.6" depart="144.00" departLane="N_left_0" departPos="5.10" departSpeed="0.00" departDelay="0.00" arrival="188.00" arrivalLane="center_to_W_0" arrivalPos="486.40" arrivalSpeed="14.37" duration="44.00" routeLength="532.27" waitingTime="0.00" waitingCount="0" stopTime="0.00" timeLoss="5.66" rerouteNo="0" devices="tripinfo_N_left_f.6" vType="car" speedFactor="1.04" vaporized=""/>
    <tripinfo id="E_left_f.2" depart="144.00" departLane="E_left_0" departPos="5.10" departSpeed="0.00" departDelay="0.00" arrival="188.00" arrivalLane="center_to_N_1" arrivalPos="486.40" arrivalSpeed="13.82" duration="44.00" routeLength="537.05" waitingTime="0.00" waitingCount="0" stopTime="0.00" timeLoss="5.33" rerouteNo="0" devices="tripinfo_E_left_f.2" vType="car" speedFactor="1.02" vaporized=""/>
    <tripinfo id="S_thru_f2.4" depart="144.00" departLane="S_thru_2_0" departPos="5.10" departSpeed="0.00" departDelay="0.00" arrival="189.00" arrivalLane="center_to_S_1" arrivalPos="486.40" arrivalSpeed="13.25" duration="45.00" routeLength="545.12" waitingTime="0.00" waitingCount="0" stopTime="0.00" timeLoss="4.74" rerouteNo="0" devices="tripinfo_S_thru_f2.4" vType="car" speedFactor="0.99" vaporized=""/>
    <tripinfo id="S_left_f.2" depart="144.00" departLane="S_left_0" departPos="5.10" departSpeed="0.00" departDelay="0.00" arrival="189.00" arrivalLane="center_to_E_0" arrivalPos="486.40" arrivalSpeed="13.08" duration="45.00" routeLength="532.27" waitingTime="0.00" waitingCount="0" stopTime="0.00" timeLoss="5.83" rerouteNo="0" devices="tripinfo_S_left_f.2" vType="car" speedFactor="1.02" vaporized=""/>
    <tripinfo id="W_left_f.2" depart="144.00" departLane="W_left_0" departPos="5.10" departSpeed="0.00" departDelay="0.00" arrival="190.00" arrivalLane="center_to_S_2" arrivalPos="486.40" arrivalSpeed="12.91" duration="46.00" routeLength="537.05" waitingTime="0.00" waitingCount="0" stopTime="0.00" timeLoss="5.49" rerouteNo="0" devices="tripinfo_W_left_f.2" vType="car" speedFactor="0.97" vaporized=""/>
    <tripinfo id="N_thru_f2.13" depart="156.00" departLane="N_thru_2_0" departPos="5.10" departSpeed="0.00" departDelay="0.00" arrival="198.00" arrivalLane="center_to_N_0" arrivalPos="486.40" arrivalSpeed="13.47" duration="42.00" routeLength="545.12" waitingTime="0.00" waitingCount="0" stopTime="0.00" timeLoss="4.61" rerouteNo="0" devices="tripinfo_N_thru_f2.13" vType="car" speedFactor="1.06" vaporized=""/>
    <tripinfo id="N_thru_f1.13" depart="156.00" departLane="N_thru_1_0" departPos="5.10" departSpeed="0.00" departDelay="0.00" arrival="203.00" arrivalLane="center_to_N_0" arrivalPos="486.40" arrivalSpeed="12.89" duration="47.00" routeLength="545.78" waitingTime="0.00" waitingCount="0" stopTime="0.00" timeLoss="4.30" rerouteNo="0" devices="tripinfo_N_thru_f1.13" vType="car" speedFactor="0.94" vaporized=""/>
    <tripinfo id="N_left_f.7" depart="168.00" departLane="N_left_0" departPos="5.10" departSpeed="0.00" departDelay="0.00" arrival="212.00" arrivalLane="center_to_W_0" arrivalPos="486.40" arrivalSpeed="14.29" duration="44.00" routeLength="532.27" waitingTime="0.00" waitingCount="0" stopTime="0.00" timeLoss="5.86" rerouteNo="0" devices="tripinfo_N_left_f.7" vType="car" speedFactor="1.03" vaporized=""/>
    <tripinfo id="N_thru_f2.14" depart="168.00" departLane="N_thru_2_0" departPos="5.10" departSpeed="0.00" departDelay="0.00" arrival="213.00" arrivalLane="center_to_N_1" arrivalPos="486.40" arrivalSpeed="13.51" duration="45.00" routeLength="545.12" waitingTime="0.00" waitingCount="0" stopTime="0.00" timeLoss="4.92" rerouteNo="0" devices="tripinfo_N_thru_f2.14" vType="car" speedFactor="0.98" vaporized=""/>
    <tripinfo id="N_thru_f1.14" depart="168.00" departLane="N_thru_1_0" departPos="5.10" departSpeed="0.00" departDelay="0.00" arrival="214.00" arrivalLane="center_to_N_0" arrivalPos="486.40" arrivalSpeed="12.74" duration="46.00" routeLength="545.78" waitingTime="0.00" waitingCount="0" stopTime="0.00" timeLoss="4.83" rerouteNo="0" devices="tripinfo_N_thru_f1.14" vType="car" speedFactor="0.96" vaporized=""/>
    <tripinfo id="S_thru_f1.5" depart="180.00" departLane="S_thru_1_0" departPos="5.10" departSpeed="0.00" departDelay="0.00" arrival="222.00" arrivalLane="center_to_S_0" arrivalPos="486.40" arrivalSpeed="13.90" duration="42.00" routeLength="545.78" waitingTime="0.00" waitingCount="0" stopTime="0.00" timeLoss="4.94" rerouteNo="0" devices="tripinfo_S_thru_f1.5" vType="car" speedFactor="1.09" vaporized=""/>
    <tripinfo id="S_thru_f2.5" depart="180.00" departLane="S_thru_2_0" departPos="5.10" departSpeed="0.00" departDelay="0.00" arrival="223.00" arrivalLane="center_to_S_1" arrivalPos="486.40" arrivalSpeed="14.14" duration="43.00" routeLength="545.12" waitingTime="0.00" waitingCount="0" stopTime="0.00" timeLoss="4.58" rerouteNo="0" devices="tripinfo_S_thru_f2.5" vType="car" speedFactor="1.03" vaporized=""/>
    <tripinfo id="N_thru_f2.15" depart="180.00" departLane="N_thru_2_0" departPos="5.10" departSpeed="0.00" departDelay="0.00" arrival="224.00" arrivalLane="center_to_N_0" arrivalPos="486.40" arrivalSpeed="13.76" duration="44.00" routeLength="545.12" waitingTime="0.00" waitingCount="0" stopTime="0.00" timeLoss="4.83" rerouteNo="0" devices="tripinfo_N_thru_f2.15" vType="car" speedFactor="1.01" vaporized=""/>
    <tripinfo id="N_thru_f1.15" depart="180.00" departLane="N_thru_1_0" departPos="5.10" departSpeed="0.00" departDelay="0.00" arrival="226.00" arrivalLane="center_to_N_0" arrivalPos="486.40" arrivalSpeed="12.44" duration="46.00" routeLength="545.78" waitingTime="0.00" waitingCount="0" stopTime="0.00" timeLoss="5.60" rerouteNo="0" devices="tripinfo_N_thru_f1.15" vType="car" speedFactor="0.98" vaporized=""/>
    <tripinfo id="N_left_f.8" depart="192.00" departLane="N_left_0" departPos="5.10" departSpeed="0.00" departDelay="0.00" arrival="236.00" arrivalLane="center_to_W_0" arrivalPos="486.40" arrivalSpeed="13.72" duration="44.00" routeLength="532.27" waitingTime="0.00" waitingCount="0" stopTime="0.00" timeLoss="5.89" rerouteNo="0" devices="tripinfo_N_left_f.8" vType="car" speedFactor="1.04" vaporized=""/>
    <tripinfo id="N_thru_f2.16" depart="192.00" departLane="N_thru_2_0" departPos="5.10" departSpeed="0.00" departDelay="0.00" arrival="237.00" arrivalLane="center_to_N_1" arrivalPos="486.40" arrivalSpeed="13.43" duration="45.00" routeLength="545.12" waitingTime="0.00" waitingCount="0" stopTime="0.00" timeLoss="5.38" rerouteNo="0" devices="tripinfo_N_thru_f2.16" vType="car" speedFactor="1.00" vaporized=""/>
    <tripinfo id="N_thru_f1.16" depart="192.00" departLane="N_thru_1_0" departPos="5.10" departSpeed="0.00" departDelay="0.00" arrival="238.00" arrivalLane="center_to_N_0" arrivalPos="486.40" arrivalSpeed="12.36" duration="46.00" routeLength="545.78" waitingTime="0.00" waitingCount="0" stopTime="0.00" timeLoss="5.50" rerouteNo="0" devices="tripinfo_N_thru_f1.16" vType="car" speedFactor="0.98" vaporized=""/>
    <tripinfo id="N_thru_f2.17" depart="204.00" departLane="N_thru_2_0" departPos="5.10" departSpeed="0.00" departDelay="0.00" arrival="247.00" arrivalLane="center_to_N_1" arrivalPos="486.40" arrivalSpeed="13.59" duration="43.00" routeLength="545.12" waitingTime="0.00" waitingCount="0" stopTime="0.00" timeLoss="4.55" rerouteNo="0" devices="tripinfo_N_thru_f2.17" vType="car" speedFactor="1.02" vaporized=""/>
    <tripinfo id="N_thru_f1.17" depart="204.00" departLane="N_thru_1_0" departPos="5.10" departSpeed="0.00" departDelay="0.00" arrival="248.00" arrivalLane="center_to_N_0" arrivalPos="486.40" arrivalSpeed="13.78" duration="44.00" routeLength="545.78" waitingTime="0.00" waitingCount="0" stopTime="0.00" timeLoss="4.60" rerouteNo="0" devices="tripinfo_N_thru_f1.17" vType="car" speedFactor="1.01" vaporized=""/>
    <tripinfo id="N_left_f.9" depart="216.00" departLane="N_left_0" departPos="5.10" departSpeed="0.00" departDelay="0.00" arrival="256.00" arrivalLane="center_to_W_0" arrivalPos="486.40" arrivalSpeed="14.70" duration="40.00" routeLength="532.27" waitingTime="0.00" waitingCount="0" stopTime="0.00" timeLoss="5.44" rerouteNo="0" devices="tripinfo_N_left_f.9" vType="car" speedFactor="1.12" vaporized=""/>
    <tripinfo id="S_left_f.3" depart="216.00" departLane="S_left_0" departPos="5.10" departSpeed="0.00" departDelay="0.00" arrival="258.00" arrivalLane="center_to_E_0" arrivalPos="486.40" arrivalSpeed="13.98" duration="42.00" routeLength="532.27" waitingTime="0.00" waitingCount="0" stopTime="0.00" timeLoss="5.93" rerouteNo="0" devices="tripinfo_S_left_f.3" vType="car" speedFactor="1.10" vaporized=""/>
    <tripinfo id="E_left_f.3" depart="216.00" departLane="E_left_0" departPos="5.10" departSpeed="0.00" departDelay="0.00" arrival="259.00" arrivalLane="center_to_N_1" arrivalPos="486.40" arrivalSpeed="13.83" duration="43.00" routeLength="537.05" waitingTime="0.00" waitingCount="0" stopTime="0.00" timeLoss="5.22" rerouteNo="0" devices="tripinfo_E_left_f.3" vType="car" speedFactor="1.06" vaporized=""/>
    <tripinfo id="N_thru_f1.18" depart="216.00" departLane="N_thru_1_0" departPos="5.10" departSpeed="0.00" departDelay="0.00" arrival="260.00" arrivalLane="center_to_N_0" arrivalPos="486.40" arrivalSpeed="13.38" duration="44.00" routeLength="545.78" waitingTime="0.00" waitingCount="0" stopTime="0.00" timeLoss="4.60" rerouteNo="0" devices="tripinfo_N_thru_f1.18" vType="car" speedFactor="1.02" vaporized=""/>