<?xml version="1.0" encoding="UTF-8"?>

<!-- generated on 2026-04-01T19:31:19.674240-05:00 by Eclipse SUMO sumo 1.25.0
<sumoConfiguration xmlns:xsi="http://www.w3.org/2001/XMLSchema-instance" xsi:noNamespaceSchemaLocation="http://sumo.dlr.de/xsd/sumoConfiguration.xsd">

    <input>
        <net-file value="/home/gribel/Capstone/sumo/network/intersection.net.xml"/>
        <route-files value="/home/gribel/Capstone/sumo/demand/north_south_heavy.rou.xml"/>
    </input>

    <output>
        <tripinfo-output value="/home/gribel/Capstone/sumo/config/tripinfo.xml"/>
        <tripinfo-output.write-unfinished value="true"/>
    </output>

    <time>
        <step-length value="1.0"/>
    </time>

    <processing>
        <no-internal-links value="false"/>
        <time-to-teleport value="300"/>
        <max-depart-delay value="60"/>
    </processing>

    <report>
        <no-step-log value="true"/>
    </report>

    <traci_server>
        <remote-port value="8813"/>
    </traci_server>

    <gui_only>
        <quit-on-end value="true"/>
    </gui_only>

</sumoConfiguration>
-->

<tripinfos xmlns:xsi="http://www.w3.org/2001/XMLSchema-instance" xsi:noNamespaceSchemaLocation="http://sumo.dlr.de/xsd/tripinfo_file.xsd">
    <tripinfo id="S_thru_f2.0" depart="0.00" departLane="S_thru_2_0" departPos="5.10" departSpeed="0.00" departDelay="0.00" arrival="41.00" arrivalLane="center_to_S_0" arrivalPos="486.40" arrivalSpeed="14.03" duration="41.00" routeLength="545.12" waitingTime="0.00" waitingCount="0" stopTime="0.00" timeLoss="4.42" rerouteNo="0" devices="tripinfo_S_thru_f2.0" vType="car" speedFactor="1.08" vaporized=""/>
    <tripinfo id="N_thru_f1.0" depart="0.00" departLane="N_thru_1_0" departPos="5.10" departSpeed="0.00" departDelay="0.00" arrival="42.00" arrivalLane="center_to_N_0" arrivalPos="486.40" arrivalSpeed="13.57" duration="42.00" routeLength="545.78" waitingTime="0.00" waitingCount="0" stopTime="0.00" timeLoss="4.61" rerouteNo="0" devices="tripinfo_N_thru_f1.0" vType="car" speedFactor="1.06" vaporized=""/>
    <tripinfo id="E_left_f.0" depart="0.00" departLane="E_left_0" departPos="5.10" departSpeed="0.00" departDelay="0.00" arrival="42.00" arrivalLane="center_to_N_1" arrivalPos="486.40" arrivalSpeed="15.08" duration="42.00" routeLength="537.05" waitingTime="0.00" waitingCount="0" stopTime="0.00" timeLoss="5.40" rerouteNo="0" devices="tripinfo_E_left_f.0" vType="car" speedFactor="1.09" vaporized=""/>
    <tripinfo id="W_left_f.0" depart="0.00" departLane="W_left_0" departPos="5.10" departSpeed="0.00" departDelay="0.00" arrival="44.00" arrivalLane="center_to_S_1" arrivalPos="486.40" arrivalSpeed="13.91" duration="44.00" routeLength="537.05" waitingTime="0.00" waitingCount="0" stopTime="0.00" timeLoss="5.29" rerouteNo="0" devices="tripinfo_W_left_f.0" vType="car" speedFactor="1.03" vaporized=""/>
    <tripinfo id="S_thru_f1.0" depart="0.00" departLane="S_thru_1_0" departPos="5.10" departSpeed="0.00" departDelay="0.00" arrival="45.00" arrivalLane="center_to_S_0" arrivalPos="486.40" arrivalSpeed="13.88" duration="45.00" routeLength="545.78" waitingTime="0.00" waitingCount="0" stopTime="0.00" timeLoss="5.33" rerouteNo="0" devices="tripinfo_S_thru_f1.0" vType="car" speedFactor="1.01" vaporized=""/>
    <tripinfo id="N_thru_f2.0" depart="0.00" departLane="N_thru_2_0" departPos="5.10" departSpeed="0.00" departDelay="0.00" arrival="47.00" arrivalLane="center_to_N_0" arrivalPos="486.40" arrivalSpeed="12.19" duration="47.00" routeLength="545.12" waitingTime="0.00" waitingCount="0" stopTime="0.00" timeLoss="4.79" rerouteNo="0" devices="tripinfo_N_thru_f2.0" vType="car" speedFactor="0.94" vaporized=""/>
    <tripinfo id="N_left_f.0" depart="0.00" departLane="N_left_0" departPos="5.10" departSpeed="0.00" departDelay="0.00" arrival="48.00" arrivalLane="center_to_W_0" arrivalPos="486.40" arrivalSpeed="12.30" duration="48.00" routeLength="532.27" waitingTime="0.00" waitingCount="0" stopTime="0.00" timeLoss="5.96" rerouteNo="0" devices="tripinfo_N_left_f.0" vType="car" speedFactor="0.94" vaporized=""/>
    <tripinfo id="S_left_f.0" depart="0.00" departLane="S_left_0" departPos="5.10" departSpeed="0.00" departDelay="0.00" arrival="51.00" arrivalLane="center_to_E_0" arrivalPos="486.40" arrivalSpeed="11.69" duration="51.00" routeLength="532.27" waitingTime="0.00" waitingCount="0" stopTime="0.00" timeLoss="5.24" rerouteNo="0" devices="tripinfo_S_left_f.0" vType="car" speedFactor="0.86" vaporized=""/>
    <tripinfo id="N_thru_f2.1" depart="15.00" departLane="N_thru_2_0" departPos="5.10" departSpeed="0.00" departDelay="0.60" arrival="55.00" arrivalLane="center_to_N_0" arrivalPos="486.40" arrivalSpeed="15.52" duration="40.00" routeLength="545.12" waitingTime="0.00" waitingCount="0" stopTime="0.00" timeLoss="4.63" rerouteNo="0" devices="tripinfo_N_thru_f2.1" vType="car" speedFactor="1.12" vaporized=""/>
    <tripinfo id="N_thru_f1.1" depart="15.00" departLane="N_thru_1_0" departPos="5.10" departSpeed="0.00" departDelay="0.60" arrival="58.00" arrivalLane="center_to_N_0" arrivalPos="486.40" arrivalSpeed="14.40" duration="43.00" routeLength="545.78" waitingTime="0.00" waitingCount="0" stopTime="0.00" timeLoss="4.84" rerouteNo="0" devices="tripinfo_N_thru_f1.1" vType="car" speedFactor="1.05" vaporized=""/>
    <tripinfo id="S_thru_f1.1" depart="15.00" departLane="S_thru_1_0" departPos="5.10" departSpeed="0.00" departDelay="0.60" arrival="60.00" arrivalLane="center_to_S_0" arrivalPos="486.40" arrivalSpeed="12.71" duration="45.00" routeLength="545.78" waitingTime="0.00" waitingCount="0" stopTime="0.00" timeLoss="4.53" rerouteNo="0" devices="tripinfo_S_thru_f1.1" vType="car" speedFactor="0.99" vaporized=""/>
    <tripinfo id="S_thru_f2.1" depart="15.00" departLane="S_thru_2_0" departPos="5.10" departSpeed="0.00" departDelay="0.60" arrival="62.00" arrivalLane="center_to_S_0" arrivalPos="486.40" arrivalSpeed="12.84" duration="47.00" routeLength="545.12" waitingTime="0.00" waitingCount="0" stopTime="0.00" timeLoss="4.61" rerouteNo="0" devices="tripinfo_S_thru_f2.1" vType="car" speedFactor="0.93" vaporized=""/>
    <tripinfo id="N_thru_f2.2" depart="29.00" departLane="N_thru_2_0" departPos="5.10" departSpeed="0.00" departDelay="0.20" arrival="68.00" arrivalLane="center_to_N_0" arrivalPos="486.40" arrivalSpeed="15.45" duration="39.00" routeLength="545.12" waitingTime="0.00" waitingCount="0" stopTime="0.00" timeLoss="4.77" rerouteNo="0" devices="tripinfo_N_thru_f2.2" vType="car" speedFactor="1.16" vaporized=""/>
    <tripinfo id="S_left_f.1" depart="24.00" departLane="S_left_0" departPos="5.10" departSpeed="0.00" departDelay="0.00" arrival="72.00" arrivalLane="center_to_E_0" arrivalPos="486.40" arrivalSpeed="13.03" duration="48.00" routeLength="532.27" waitingTime="0.00" waitingCount="0" stopTime="0.00" timeLoss="5.72" rerouteNo="0" devices="tripinfo_S_left_f.1" vType="car" speedFactor="0.94" vaporized=""/>
    <tripinfo id="S_thru_f1.2" depart="29.00" departLane="S_thru_1_0" departPos="5.10" departSpeed="0.00" departDelay="0.20" arrival="73.00" arrivalLane="center_to_S_0" arrivalPos="486.40" arrivalSpeed="13.86" duration="44.00" routeLength="545.78" waitingTime="0.00" waitingCount="0" stopTime="0.00" timeLoss="4.50" rerouteNo="0" devices="tripinfo_S_thru_f1.2" vType="car" speedFactor="1.02" vaporized=""/>
    <tripinfo id="S_thru_f2.2" depart="29.00" departLane="S_thru_2_0" departPos="5.10" departSpeed="0.00" departDelay="0.20" arrival="73.00" arrivalLane="center_to_S_1" arrivalPos="486.40" arrivalSpeed="12.96" duration="44.00" routeLength="545.12" waitingTime="0.00" waitingCount="0" stopTime="0.00" timeLoss="4.61" rerouteNo="0" devices="tripinfo_S_thru_f2.2" vType="car" speedFactor="1.01" vaporized=""/>
    <tripinfo id="N_left_f.1" depart="24.00" departLane="N_left_0" departPos="5.10" departSpeed="0.00" departDelay="0.00" arrival="75.00" arrivalLane="center_to_W_0" arrivalPos="486.40" arrivalSpeed="11.15" duration="51.00" routeLength="532.27" waitingTime="0.00" waitingCount="0" stopTime="0.00" timeLoss="6.08" rerouteNo="0" devices="tripinfo_N_left_f.1" vType="car" speedFactor="0.88" vaporized=""/>
    <tripinfo id="N_thru_f1.2" depart="29.00" departLane="N_thru_1_0" departPos="5.10" departSpeed="0.00" departDelay="0.20" arrival="77.00" arrivalLane="center_to_N_0" arrivalPos="486.40" arrivalSpeed="12.59" duration="48.00" routeLength="545.78" waitingTime="0.00" waitingCount="0" stopTime="0.00" timeLoss="5.46" rerouteNo="0" devices="tripinfo_N_thru_f1.2" vType="car" speedFactor="0.94" vaporized=""/>
    <tripinfo id="E_thru_f1.0" depart="0.00" departLane="E_thru_1_0" departPos="5.10" departSpeed="0.00" departDelay="0.00" arrival="89.00" arrivalLane="center_to_E_0" arrivalPos="486.40" arrivalSpeed="13.82" duration="89.00" routeLength="545.12" waitingTime="42.00" waitingCount="1" stopTime="0.00" timeLoss="50.45" rerouteNo="0" devices="tripinfo_E_thru_f1.0" vType="car" speedFactor="1.03" vaporized=""/>
    <tripinfo id="W_thru_f1.0" depart="0.00" departLane="W_thru_1_0" departPos="5.10" departSpeed="0.00" departDelay="0.00" arrival="89.00" arrivalLane="center_to_W_0" arrivalPos="486.40" arrivalSpeed="13.78" duration="89.00" routeLength="545.12" waitingTime="42.00" waitingCount="1" stopTime="0.00" timeLoss="50.59" rerouteNo="0" devices="tripinfo_W_thru_f1.0" vType="car" speedFactor="1.05" vaporized=""/>
    <tripinfo id="W_thru_f2.0" depart="0.00" departLane="W_thru_2_0" departPos="5.10" departSpeed="0.00" departDelay="0.00" arrival="95.00" arrivalLane="center_to_W_0" arrivalPos="486.40" arrivalSpeed="11.75" duration="95.00" routeLength="544.90" waitingTime="40.00" waitingCount="1" stopTime="0.00" timeLoss="50.15" rerouteNo="0" devices="tripinfo_W_thru_f2.0" vType="car" speedFactor="0.89" vaporized=""/>
    <tripinfo id="S_left_f.2" depart="48.00" departLane="S_left_0" departPos="5.10" departSpeed="0.00" departDelay="0.00" arrival="95.00" arrivalLane="center_to_E_0" arrivalPos="486.40" arrivalSpeed="13.11" duration="47.00" routeLength="532.27" waitingTime="0.00" waitingCount="0" stopTime="0.00" timeLoss="5.67" rerouteNo="0" devices="tripinfo_S_left_f.2" vType="car" speedFactor="0.95" vaporized=""/>
    <tripinfo id="N_thru_f1.3" depart="44.00" departLane="N_thru_1_0" departPos="5.10" departSpeed="0.00" departDelay="0.80" arrival="96.00" arrivalLane="center_to_N_0" arrivalPos="486.40" arrivalSpeed="12.84" duration="52.00" routeLength="545.78" waitingTime="1.00" waitingCount="1" stopTime="0.00" timeLoss="10.81" rerouteNo="0" devices="tripinfo_N_thru_f1.3" vType="car" speedFactor="0.97" vaporized=""/>
    <tripinfo id="N_left_f.2" depart="48.00" departLane="N_left_0" departPos="5.10" departSpeed="0.00" departDelay="0.00" arrival="97.00" arrivalLane="center_to_W_0" arrivalPos="486.40" arrivalSpeed="12.25" duration="49.00" routeLength="532.27" waitingTime="0.00" waitingCount="0" stopTime="0.00" timeLoss="5.71" rerouteNo="0" devices="tripinfo_N_left_f.2" vType="car" speedFactor="0.92" vaporized=""/>
    <tripinfo id="E_thru_f2.0" depart="0.00" departLane="E_thru_2_0" departPos="5.10" departSpeed="0.00" departDelay="0.00" arrival="98.00" arrivalLane="center_to_E_0" arrivalPos="486.40" arrivalSpeed="10.58" duration="98.00" routeLength="544.90" waitingTime="40.00" waitingCount="1" stopTime="0.00" timeLoss="50.39" rerouteNo="0" devices="tripinfo_E_thru_f2.0" vType="car" speedFactor="0.83" vaporized=""/>
    <tripinfo id="N_thru_f1.4" depart="58.00" departLane="N_thru_1_0" departPos="5.10" departSpeed="0.00" departDelay="0.40" arrival="98.00" arrivalLane="center_to_N_1" arrivalPos="486.40" arrivalSpeed="14.99" duration="40.00" routeLength="545.78" waitingTime="0.00" waitingCount="0" stopTime="0.00" timeLoss="4.79" rerouteNo="0" devices="tripinfo_N_thru_f1.4" vType="car" speedFactor="1.13" vaporized=""/>
    <tripinfo id="S_thru_f1.4" depart="58.00" departLane="S_thru_1_0" departPos="5.10" departSpeed="0.00" departDelay="0.40" arrival="98.00" arrivalLane="center_to_S_1" arrivalPos="486.40" arrivalSpeed="15.77" duration="40.00" routeLength="545.78" waitingTime="0.00" waitingCount="0" stopTime="0.00" timeLoss="6.53" rerouteNo="0" devices="tripinfo_S_thru_f1.4" vType="car" speedFactor="1.18" vaporized=""/>
    <tripinfo id="S_thru_f2.4" depart="58.00" departLane="S_thru_2_0" departPos="5.10" departSpeed="0.00" departDelay="0.40" arrival="98.00" arrivalLane="center_to_S_2" arrivalPos="486.40" arrivalSpeed="15.28" duration="40.00" routeLength="545.12" waitingTime="0.00" waitingCount="0" stopTime="0.00" timeLoss="5.19" rerouteNo="0" devices="tripinfo_S_thru_f2.4" vType="car" speedFactor="1.15" vaporized=""/>
    <tripinfo id="N_thru_f2.3" depart="44.00" departLane="N_thru_2_0" departPos="5.10" departSpeed="0.00" departDelay="0.80" arrival="99.00" arrivalLane="center_to_N_0" arrivalPos="486.40" arrivalSpeed="12.12" duration="55.00" routeLength="545.12" waitingTime="1.00" waitingCount="1" stopTime="0.00" timeLoss="10.66" rerouteNo="0" devices="tripinfo_N_thru_f2.3" vType="car" speedFactor="0.89" vaporized=""/>
    <tripinfo id="S_thru_f2.3" depart="44.00" departLane="S_thru_2_0" departPos="5.10" departSpeed="0.00" departDelay="0.80" arrival="100.00" arrivalLane="center_to_S_0" arrivalPos="486.40" arrivalSpeed="10.87" duration="56.00" routeLength="545.12" waitingTime="1.00" waitingCount="1" stopTime="0.00" timeLoss="10.98" rerouteNo="0" devices="tripinfo_S_thru_f2.3" vType="car" speedFactor="0.87" vaporized=""/>
    <tripinfo id="S_thru_f1.3" depart="44.00" departLane="S_thru_1_0" departPos="5.10" departSpeed="0.00" departDelay="0.80" arrival="103.00" arrivalLane="center_to_S_0" arrivalPos="486.40" arrivalSpeed="10.46" duration="59.00" routeLength="545.78" waitingTime="1.00" waitingCount="1" stopTime="0.00" timeLoss="11.04" rerouteNo="0" devices="tripinfo_S_thru_f1.3" vType="car" speedFactor="0.83" vaporized=""/>
    <tripinfo id="N_thru_f2.4" depart="58.00" departLane="N_thru_2_0" departPos="5.10" departSpeed="0.00" departDelay="0.40" arrival="105.00" arrivalLane="center_to_N_0" arrivalPos="486.40" arrivalSpeed="12.55" duration="47.00" routeLength="545.12" waitingTime="0.00" waitingCount="0" stopTime="0.00" timeLoss="4.79" rerouteNo="0" devices="tripinfo_N_thru_f2.4" vType="car" speedFactor="0.93" vaporized=""/>
    <tripinfo id="N_thru_f2.5" depart="72.00" departLane="N_thru_2_0" departPos="5.10" departSpeed="0.00" departDelay="0.00" arrival="111.00" arrivalLane="center_to_N_0" arrivalPos="486.40" arrivalSpeed="15.78" duration="39.00" routeLength="545.12" waitingTime="0.00" waitingCount="0" stopTime="0.00" timeLoss="4.93" rerouteNo="0" devices="tripinfo_N_thru_f2.5" vType="car" speedFactor="1.17" vaporized=""/>
    <tripinfo id="E_thru_f2.1" depart="72.00" departLane="E_thru_2_0" departPos="5.10" departSpeed="0.00" departDelay="0.00" arrival="114.00" arrivalLane="center_to_E_1" arrivalPos="486.40" arrivalSpeed="15.91" duration="42.00" routeLength="544.90" waitingTime="0.00" waitingCount="0" stopTime="0.00" timeLoss="8.18" rerouteNo="0" devices="tripinfo_E_thru_f2.1" vType="car" speedFactor="1.18" vaporized=""/>
    <tripinfo id="S_thru_f2.5" depart="72.00" departLane="S_thru_2_0" departPos="5.10" departSpeed="0.00" departDelay="0.00" arrival="116.00" arrivalLane="center_to_S_0" arrivalPos="486.40" arrivalSpeed="12.86" duration="44.00" routeLength="545.12" waitingTime="0.00" waitingCount="0" stopTime="0.00" timeLoss="4.64" rerouteNo="0" devices="tripinfo_S_thru_f2.5" vType="car" speedFactor="1.02" vaporized=""/>
    <tripinfo id="N_left_f.3" depart="72.00" departLane="N_left_0" departPos="5.10" departSpeed="0.00" departDelay="0.00" arrival="116.00" arrivalLane="center_to_W_0" arrivalPos="486.40" arrivalSpeed="13.44" duration="44.00" routeLength="532.27" waitingTime="0.00" waitingCount="0" stopTime="0.00" timeLoss="5.72" rerouteNo="0" devices="tripinfo_N_left_f.3" vType="car" speedFactor="1.03" vaporized=""/>
    <tripinfo id="W_thru_f1.1" depart="72.00" departLane="W_thru_1_0" departPos="5.10" departSpeed="0.00" departDelay="0.00" arrival="117.00" arrivalLane="center_to_W_1" arrivalPos="486.40" arrivalSpeed="15.12" duration="45.00" routeLength="545.12" waitingTime="0.00" waitingCount="0" stopTime="0.00" timeLoss="8.42" rerouteNo="0" devices="tripinfo_W_thru_f1.1" vType="car" speedFactor="1.10" vaporized=""/>
    <tripinfo id="S_left_f.3" depart="72.00" departLane="S_left_0" departPos="5.10" departSpeed="0.00" departDelay="0.00" arrival="120.00" arrivalLane="center_to_E_0" arrivalPos="486.40" arrivalSpeed="12.85" duration="48.00" routeLength="532.27" waitingTime="0.00" waitingCount="0" stopTime="0.00" timeLoss="6.31" rerouteNo="0" devices="tripinfo_S_left_f.3" vType="car" speedFactor="0.96" vaporized=""/>
    <tripinfo id="E_thru_f1.1" depart="72.00" departLane="E_thru_1_0" departPos="5.10" departSpeed="0.00" departDelay="0.00" arrival="121.00" arrivalLane="center_to_E_1" arrivalPos="486.40" arrivalSpeed="13.15" duration="49.00" routeLength="545.12" waitingTime="0.00" waitingCount="0" stopTime="0.00" timeLoss="7.74" rerouteNo="0" devices="tripinfo_E_thru_f1.1" vType="car" speedFactor="0.97" vaporized=""/>
    <tripinfo id="N_thru_f1.5" depart="72.00" departLane="N_thru_1_0" departPos="5.10" departSpeed="0.00" departDelay="0.00" arrival="123.00" arrivalLane="center_to_N_0" arrivalPos="486.40" arrivalSpeed="12.72" duration="51.00" routeLength="545.78" waitingTime="1.00" waitingCount="1" stopTime="0.00" timeLoss="11.30" rerouteNo="0" devices="tripinfo_N_thru_f1.5" vType="car" speedFactor="1.01" vaporized=""/>
    <tripinfo id="S_thru_f1.5" depart="72.00" departLane="S_thru_1_0" departPos="5.10" departSpeed="0.00" departDelay="0.00" arrival="124.00" arrivalLane="center_to_S_0" arrivalPos="486.40" arrivalSpeed="12.93" duration="52.00" routeLength="545.78" waitingTime="1.00" waitingCount="1" stopTime="0.00" timeLoss="11.64" rerouteNo="0" devices="tripinfo_S_thru_f1.5" vType="car" speedFactor="0.99" vaporized=""/>
    <tripinfo id="W_thru_f2.1" depart="72.00" departLane="W_thru_2_0" departPos="5.10" departSpeed="0.00" departDelay="0.00" arrival="124.00" arrivalLane="center_to_W_0" arrivalPos="486.40" arrivalSpeed="11.86" duration="52.00" routeLength="544.90" waitingTime="0.00" waitingCount="0" stopTime="0.00" timeLoss="8.41" rerouteNo="0" devices="tripinfo_W_thru_f2.1" vType="car" speedFactor="0.90" vaporized=""/>
    <tripinfo id="N_thru_f1.6" depart="87.00" departLane="N_thru_1_0" departPos="5.10" departSpeed="0.00" departDelay="0.60" arrival="129.00" arrivalLane="center_to_N_0" arrivalPos="486.40" arrivalSpeed="14.59" duration="42.00" routeLength="545.78" waitingTime="0.00" waitingCount="0" stopTime="0.00" timeLoss="5.17" rerouteNo="0" devices="tripinfo_N_thru_f1.6" vType="car" speedFactor="1.09" vaporized=""/>
    <tripinfo id="S_thru_f2.6" depart="87.00" departLane="S_thru_2_0" departPos="5.10" departSpeed="0.00" departDelay="0.60" arrival="129.00" arrivalLane="center_to_S_0" arrivalPos="486.40" arrivalSpeed="14.13" duration="42.00" routeLength="545.12" waitingTime="0.00" waitingCount="0" stopTime="0.00" timeLoss="5.05" rerouteNo="0" devices="tripinfo_S_thru_f2.6" vType="car" speedFactor="1.09" vaporized=""/>
    <tripinfo id="N_thru_f2.6" depart="87.00" departLane="N_thru_2_0" departPos="5.10" departSpeed="0.00" departDelay="0.60" arrival="130.00" arrivalLane="center_to_N_1" arrivalPos="486.40" arrivalSpeed="14.07" duration="43.00" routeLength="545.12" waitingTime="0.00" waitingCount="0" stopTime="0.00" timeLoss="4.77" rerouteNo="0" devices="tripinfo_N_thru_f2.6" vType="car" speedFactor="1.04" vaporized=""/>
    <tripinfo id="S_thru_f1.6" depart="87.00" departLane="S_thru_1_0" departPos="5.10" departSpeed="0.00" departDelay="0.60" arrival="131.00" arrivalLane="center_to_S_0" arrivalPos="486.40" arrivalSpeed="13.45" duration="44.00" routeLength="545.78" waitingTime="0.00" waitingCount="0" stopTime="0.00" timeLoss="5.87" rerouteNo="0" devices="tripinfo_S_thru_f1.6" vType="car" speedFactor="1.04" vaporized=""/>
    <tripinfo id="S_thru_f2.7" depart="101.00" departLane="S_thru_2_0" departPos="5.10" departSpeed="0.00" departDelay="0.20" arrival="140.00" arrivalLane="center_to_S_0" arrivalPos="486.40" arrivalSpeed="15.26" duration="39.00" routeLength="545.12" waitingTime="0.00" waitingCount="0" stopTime="0.00" timeLoss="5.06" rerouteNo="0" devices="tripinfo_S_thru_f2.7" vType="car" speedFactor="1.17" vaporized=""/>
    <tripinfo id="N_left_f.4" depart="96.00" departLane="N_left_0" departPos="5.10" departSpeed="0.00" departDelay="0.00" arrival="142.00" arrivalLane="center_to_W_0" arrivalPos="486.40" arrivalSpeed="12.80" duration="46.00" routeLength="532.27" waitingTime="0.00" waitingCount="0" stopTime="0.00" timeLoss="6.42" rerouteNo="0" devices="tripinfo_N_left_f.4" vType="car" speedFactor="1.00" vaporized=""/>
    <tripinfo id="S_left_f.4" depart="96.00" departLane="S_left_0" departPos="5.10" departSpeed="0.00" departDelay="0.00" arrival="146.00" arrivalLane="center_to_E_0" arrivalPos="486.40" arrivalSpeed="12.32" duration="50.00" routeLength="532.27" waitingTime="0.00" waitingCount="0" stopTime="0.00" timeLoss="6.49" rerouteNo="0" devices="tripinfo_S_left_f.4" vType="car" speedFactor="0.90" vaporized=""/>
    <tripinfo id="N_thru_f1.7" depart="101.00" departLane="N_thru_1_0" departPos="5.10" departSpeed="0.00" departDelay="0.20" arrival="151.00" arrivalLane="center_to_N_0" arrivalPos="486.40" arrivalSpeed="11.84" duration="50.00" routeLength="545.78" waitingTime="0.00" waitingCount="0" stopTime="0.00" timeLoss="4.92" rerouteNo="0" devices="tripinfo_N_thru_f1.7" vType="car" speedFactor="0.88" vaporized=""/>
    <tripinfo id="N_thru_f2.7" depart="101.00" departLane="N_thru_2_0" departPos="5.10" departSpeed="0.00" departDelay="0.20" arrival="153.00" arrivalLane="center_to_N_1" arrivalPos="486.40" arrivalSpeed="11.67" duration="52.00" routeLength="545.12" waitingTime="0.00" waitingCount="0" stopTime="0.00" timeLoss="5.20" rerouteNo="0" devices="tripinfo_N_thru_f2.7" vType="car" speedFactor="0.85" vaporized=""/>
    <tripinfo id="S_thru_f1.7" depart="101.00" departLane="S_thru_1_0" departPos="5.10" departSpeed="0.00" departDelay="0.20" arrival="153.00" arrivalLane="center_to_S_0" arrivalPos="486.40" arrivalSpeed="10.83" duration="52.00" routeLength="545.78" waitingTime="0.00" waitingCount="0" stopTime="0.00" timeLoss="5.24" rerouteNo="0" devices="tripinfo_S_thru_f1.7" vType="car" speedFactor="0.85" vaporized=""/>
    <tripinfo id="N_thru_f2.8" depart="116.00" departLane="N_thru_2_0" departPos="5.10" departSpeed="0.00" departDelay="0.80" arrival="157.00" arrivalLane="center_to_N_0" arrivalPos="486.40" arrivalSpeed="14.74" duration="41.00" routeLength="545.12" waitingTime="0.00" waitingCount="0" stopTime="0.00" timeLoss="4.46" rerouteNo="0" devices="tripinfo_N_thru_f2.8" vType="car" speedFactor="1.10" vaporized=""/>
    <tripinfo id="N_thru_f1.8" depart="116.00" departLane="N_thru_1_0" departPos="5.10" departSpeed="0.00" departDelay="0.80" arrival="160.00" arrivalLane="center_to_N_0" arrivalPos="486.40" arrivalSpeed="13.37" duration="44.00" routeLength="545.78" waitingTime="0.00" waitingCount="0" stopTime="0.00" timeLoss="4.46" rerouteNo="0" devices="tripinfo_N_thru_f1.8" vType="car" speedFactor="1.02" vaporized=""/>
    <tripinfo id="S_thru_f1.8" depart="116.00" departLane="S_thru_1_0" departPos="5.10" departSpeed="0.00" departDelay="0.80" arrival="160.00" arrivalLane="center_to_S_0" arrivalPos="486.40" arrivalSpeed="13.58" duration="44.00" routeLength="545.78" waitingTime="0.00" waitingCount="0" stopTime="0.00" timeLoss="4.52" rerouteNo="0" devices="tripinfo_S_thru_f1.8" vType="car" speedFactor="1.00" vaporized=""/>
    <tripinfo id="S_thru_f2.8" depart="116.00" departLane="S_thru_2_0" departPos="5.10" departSpeed="0.00" departDelay="0.80" arrival="161.00" arrivalLane="center_to_S_1" arrivalPos="486.40" arrivalSpeed="13.69" duration="45.00" routeLength="545.12" waitingTime="0.00" waitingCount="0" stopTime="0.00" timeLoss="4.91" rerouteNo="0" devices="tripinfo_S_thru_f2.8" vType="car" speedFactor="1.00" vaporized=""/>
    <tripinfo id="S_left_f.5" depart="120.00" departLane="S_left_0" departPos="5.10" departSpeed="0.00" departDelay="0.00" arrival="161.00" arrivalLane="center_to_E_0" arrivalPos="486.40" arrivalSpeed="15.47" duration="41.00" routeLength="532.27" waitingTime="0.00" waitingCount="0" stopTime="0.00" timeLoss="5.80" rerouteNo="0" devices="tripinfo_S_left_f.5" vType="car" speedFactor="1.14" vaporized=""/>
    <tripinfo id="N_left_f.5" depart="120.00" departLane="N_left_0" departPos="5.10" departSpeed="0.00" departDelay="0.00" arrival="170.00" arrivalLane="center_to_W_0" arrivalPos="486.40" arrivalSpeed="11.65" duration="50.00" routeLength="532.27" waitingTime="0.00" waitingCount="0" stopTime="0.00" timeLoss="6.22" rerouteNo="0" devices="tripinfo_N_left_f.5" vType="car" speedFactor="0.90" vaporized=""/>
    <tripinfo id="S_thru_f1.9" depart="130.00" departLane="S_thru_1_0" departPos="5.10" departSpeed="0.00" departDelay="0.40" arrival="171.00" arrivalLane="center_to_S_0" arrivalPos="486.40" arrivalSpeed="14.71" duration="41.00" routeLength="545.78" waitingTime="0.00" waitingCount="0" stopTime="0.00" timeLoss="4.35" rerouteNo="0" devices="tripinfo_S_thru_f1.9" vType="car" speedFactor="1.08" vaporized=""/>
    <tripinfo id="S_thru_f2.9" depart="130.00" departLane="S_thru_2_0" departPos="5.10" departSpeed="0.00" departDelay="0.40" arrival="171.00" arrivalLane="center_to_S_1" arrivalPos="486.40" arrivalSpeed="15.48" duration="41.00" routeLength="545.12" waitingTime="0.00" waitingCount="0" stopTime="0.00" timeLoss="5.00" rerouteNo="0" devices="tripinfo_S_thru_f2.9" vType="car" speedFactor="1.12" vaporized=""/>
    <tripinfo id="N_thru_f1.9" depart="130.00" departLane="N_thru_1_0" departPos="5.10" departSpeed="0.00" departDelay="0.40" arrival="173.00" arrivalLane="center_to_N_0" arrivalPos="486.40" arrivalSpeed="13.68" duration="43.00" routeLength="545.78" waitingTime="0.00" waitingCount="0" stopTime="0.00" timeLoss="4.40" rerouteNo="0" devices="tripinfo_N_thru_f1.9" vType="car" speedFactor="1.02" vaporized=""/>
    <tripinfo id="N_thru_f2.9" depart="130.00" departLane="N_thru_2_0" departPos="5.10" departSpeed="0.00" departDelay="0.40" arrival="176.00" arrivalLane="center_to_N_0" arrivalPos="486.40" arrivalSpeed="12.98" duration="46.00" routeLength="545.12" waitingTime="0.00" waitingCount="0" stopTime="0.00" timeLoss="4.93" rerouteNo="0" devices="tripinfo_N_thru_f2.9" vType="car" speedFactor="0.97" vaporized=""/>
    <tripinfo id="W_left_f.1" depart="144.00" departLane="W_left_0" departPos="5.10" departSpeed="0.00" departDelay="0.00" arrival="187.00" arrivalLane="center_to_S_0" arrivalPos="486.40" arrivalSpeed="14.33" duration="43.00" routeLength="537.05" waitingTime="0.00" waitingCount="0" stopTime="0.00" timeLoss="5.53" rerouteNo="0" devices="tripinfo_W_left_f.1" vType="car" speedFactor="1.06" vaporized=""/>
    <tripinfo id="W_thru_f1.2" depart="144.00" departLane="W_thru_1_0" departPos="5.10" departSpeed="0.00" departDelay="0.00" arrival="188.00" arrivalLane="center_to_W_1" arrivalPos="486.40" arrivalSpeed="14.05" duration="44.00" routeLength="545.12" waitingTime="0.00" waitingCount="0" stopTime="0.00" timeLoss="5.82" rerouteNo="0" devices="tripinfo_W_thru_f1.2" vType="car" speedFactor="1.04" vaporized=""/>
    <tripinfo id="W_thru_f2.2" depart="144.00" departLane="W_thru_2_0" departPos="5.10" departSpeed="0.00" departDelay="0.00" arrival="188.00" arrivalLane="center_to_W_2" arrivalPos="486.40" arrivalSpeed="14.03" duration="44.00" routeLength="544.90" waitingTime="0.00" waitingCount="0" stopTime="0.00" timeLoss="5.32" rerouteNo="0" devices="tripinfo_W_thru_f2.2" vType="car" speedFactor="1.02" vaporized=""/>
    <tripinfo id="N_left_f.6" depart="144.00" departLane="N_left_0" departPos="5.10" departSpeed="0.00" departDelay="0.00" arrival="188.00" arrivalLane="center_to_W_0" arrivalPos="486.40" arrivalSpeed="13.96" duration="44.00" routeLength="532.27" waitingTime="0.00" waitingCount="0" stopTime="0.00" timeLoss="5.50" rerouteNo="0" devices="tripinfo_N_left_f.6" vType="car" speedFactor="1.02" vaporized=""/>
    <tripinfo id="S_left_f.6" depart="144.00" departLane="S_left_0" departPos="5.10" departSpeed="0.00" departDelay="0.00" arrival="190.00" arrivalLane="center_to_E_0" arrivalPos="486.40" arrivalSpeed="13.00" duration="46.00" routeLength="532.27" waitingTime="0.00" waitingCount="0" stopTime="0.00" timeLoss="5.80" rerouteNo="0" devices="tripinfo_S_left_f.6" vType="car" speedFactor="0.97" vaporized=""/>
    <tripinfo id="E_left_f.1" depart="144.00" departLane="E_left_0" departPos="5.10" departSpeed="0.00" departDelay="0.00" arrival="192.00" arrivalLane="center_to_N_0" arrivalPos="486.40" arrivalSpeed="12.25" duration="48.00" routeLength="537.05" waitingTime="0.00" waitingCount="0" stopTime="0.00" timeLoss="5.47" rerouteNo="0" devices="tripinfo_E_left_f.1" vType="car" speedFactor="0.94" vaporized=""/>
    <tripinfo id="N_thru_f1.10" depart="144.00" departLane="N_thru_1_0" departPos="5.10" departSpeed="0.00" departDelay="0.00" arrival="193.00" arrivalLane="center_to_N_0" arrivalPos="486.40" arrivalSpeed="13.93" duration="49.00" routeLength="545.78" waitingTime="0.00" waitingCount="0" stopTime="0.00" timeLoss="10.16" rerouteNo="0" devices="tripinfo_N_thru_f1.10" vType="car" speedFactor="1.02" vaporized=""/>
    <tripinfo id="E_thru_f1.2" depart="144.00" departLane="E_thru_1_0" departPos="5.10" departSpeed="0.00" departDelay="0.00" arrival="193.00" arrivalLane="center_to_E_0" arrivalPos="486.40" arrivalSpeed="11.94" duration="49.00" routeLength="545.12" waitingTime="0.00" waitingCount="0" stopTime="0.00" timeLoss="4.99" rerouteNo="0" devices="tripinfo_E_thru_f1.2" vType="car" speedFactor="0.91" vaporized=""/>