<?xml version="1.0" encoding="UTF-8"?>

<!-- generated on 2026-04-13T12:47:33.723674-05:00 by Eclipse SUMO sumo 1.25.0
<sumoConfiguration xmlns:xsi="http://www.w3.org/2001/XMLSchema-instance" xsi:noNamespaceSchemaLocation="http://sumo.dlr.de/xsd/sumoConfiguration.xsd">

    <input>
        <net-file value="/home/gribel/Capstone/sumo/network/intersection.net.xml"/>
        <route-files value="/home/gribel/Capstone/sumo/demand/light_traffic.rou.xml"/>
    </input>

    <output>
        <tripinfo-output value="/home/gribel/Capstone/sumo/config/tripinfo_8818.xml"/>
        <tripinfo-output.write-unfinished value="true"/>
    </output>

    <time>
        <begin value="0"/>
        <end value="21600"/>
        <step-length value="1.0"/>
    </time>

    <processing>
        <no-internal-links value="false"/>
        <time-to-teleport value="300"/>
        <max-depart-delay value="60"/>
    </processing>

    <report>
        <no-step-log value="true"/>
    </report>

    <traci_server>
        <remote-port value="8818"/>
    </traci_server>

    <gui_only>
        <quit-on-end value="true"/>
    </gui_only>

</sumoConfiguration>
-->

<tripinfos xmlns:xsi="http://www.w3.org/2001/XMLSchema-instance" xsi:noNamespaceSchemaLocation="http://sumo.dlr.de/xsd/tripinfo_file.xsd">
    <tripinfo id="S_thru_f2.0" depart="0.00" departLane="S_thru_2_0" departPos="5.10" departSpeed="0.00" departDelay="0.00" arrival="41.00" arrivalLane="center_to_S_0" arrivalPos="486.40" arrivalSpeed="14.87" duration="41.00" routeLength="545.12" waitingTime="0.00" waitingCount="0" stopTime="0.00" timeLoss="4.34" rerouteNo="0" devices="tripinfo_S_thru_f2.0" vType="car" speedFactor="1.08" vaporized=""/>
    <tripinfo id="N_thru_f1.0" depart="0.00" departLane="N_thru_1_0" departPos="5.10" departSpeed="0.00" departDelay="0.00" arrival="42.00" arrivalLane="center_to_N_0" arrivalPos="486.40" arrivalSpeed="14.28" duration="42.00" routeLength="545.78" waitingTime="0.00" waitingCount="0" stopTime="0.00" timeLoss="4.61" rerouteNo="0" devices="tripinfo_N_thru_f1.0" vType="car" speedFactor="1.06" vaporized=""/>
    <tripinfo id="E_left_f.0" depart="0.00" departLane="E_left_0" departPos="5.10" departSpeed="0.00" departDelay="0.00" arrival="42.00" arrivalLane="center_to_N_1" arrivalPos="486.40" arrivalSpeed="14.66" duration="42.00" routeLength="537.05" waitingTime="0.00" waitingCount="0" stopTime="0.00" timeLoss="5.31" rerouteNo="0" devices="tripinfo_E_left_f.0" vType="car" speedFactor="1.09" vaporized=""/>
    <tripinfo id="W_left_f.0" depart="0.00" departLane="W_left_0" departPos="5.10" departSpeed="0.00" departDelay="0.00" arrival="44.00" arrivalLane="center_to_S_1" arrivalPos="486.40" arrivalSpeed="13.49" duration="44.00" routeLength="537.05" waitingTime="0.00" waitingCount="0" stopTime="0.00" timeLoss="5.22" rerouteNo="0" devices="tripinfo_W_left_f.0" vType="car" speedFactor="1.03" vaporized=""/>
    <tripinfo id="S_thru_f1.0" depart="0.00" departLane="S_thru_1_0" departPos="5.10" departSpeed="0.00" departDelay="0.00" arrival="45.00" arrivalLane="center_to_S_0" arrivalPos="486.40" arrivalSpeed="13.25" duration="45.00" routeLength="545.78" waitingTime="0.00" waitingCount="0" stopTime="0.00" timeLoss="5.56" rerouteNo="0" devices="tripinfo_S_thru_f1.0" vType="car" speedFactor="1.01" vaporized=""/>
    <tripinfo id="N_thru_f2.0" depart="0.00" departLane="N_thru_2_0" departPos="5.10" departSpeed="0.00" departDelay="0.00" arrival="47.00" arrivalLane="center_to_N_0" arrivalPos="486.40" arrivalSpeed="12.25" duration="47.00" routeLength="545.12" waitingTime="0.00" waitingCount="0" stopTime="0.00" timeLoss="4.96" rerouteNo="0" devices="tripinfo_N_thru_f2.0" vType="car" speedFactor="0.94" vaporized=""/>
    <tripinfo id="N_left_f.0" depart="0.00" departLane="N_left_0" departPos="5.10" departSpeed="0.00" departDelay="0.00" arrival="48.00" arrivalLane="center_to_W_0" arrivalPos="486.40" arrivalSpeed="12.58" duration="48.00" routeLength="532.27" waitingTime="0.00" waitingCount="0" stopTime="0.00" timeLoss="5.92" rerouteNo="0" devices="tripinfo_N_left_f.0" vType="car" speedFactor="0.94" vaporized=""/>
    <tripinfo id="S_left_f.0" depart="0.00" departLane="S_left_0" departPos="5.10" departSpeed="0.00" departDelay="0.00" arrival="51.00" arrivalLane="center_to_E_0" arrivalPos="486.40" arrivalSpeed="11.78" duration="51.00" routeLength="532.27" waitingTime="0.00" waitingCount="0" stopTime="0.00" timeLoss="5.28" rerouteNo="0" devices="tripinfo_S_left_f.0" vType="car" speedFactor="0.86" vaporized=""/>
    <tripinfo id="N_thru_f2.1" depart="72.00" departLane="N_thru_2_0" departPos="5.10" departSpeed="0.00" departDelay="0.00" arrival="112.00" arrivalLane="center_to_N_0" arrivalPos="486.40" arrivalSpeed="15.47" duration="40.00" routeLength="545.12" waitingTime="0.00" waitingCount="0" stopTime="0.00" timeLoss="4.72" rerouteNo="0" devices="tripinfo_N_thru_f2.1" vType="car" speedFactor="1.12" vaporized=""/>
    <tripinfo id="N_thru_f1.1" depart="72.00" departLane="N_thru_1_0" departPos="5.10" departSpeed="0.00" departDelay="0.00" arrival="115.00" arrivalLane="center_to_N_0" arrivalPos="486.40" arrivalSpeed="13.91" duration="43.00" routeLength="545.78" waitingTime="0.00" waitingCount="0" stopTime="0.00" timeLoss="5.00" rerouteNo="0" devices="tripinfo_N_thru_f1.1" vType="car" speedFactor="1.05" vaporized=""/>
    <tripinfo id="S_thru_f1.1" depart="72.00" departLane="S_thru_1_0" departPos="5.10" departSpeed="0.00" departDelay="0.00" arrival="116.00" arrivalLane="center_to_S_0" arrivalPos="486.40" arrivalSpeed="12.92" duration="44.00" routeLength="545.78" waitingTime="0.00" waitingCount="0" stopTime="0.00" timeLoss="4.33" rerouteNo="0" devices="tripinfo_S_thru_f1.1" vType="car" speedFactor="0.99" vaporized=""/>
    <tripinfo id="S_thru_f2.1" depart="72.00" departLane="S_thru_2_0" departPos="5.10" departSpeed="0.00" departDelay="0.00" arrival="119.00" arrivalLane="center_to_S_0" arrivalPos="486.40" arrivalSpeed="12.39" duration="47.00" routeLength="545.12" waitingTime="0.00" waitingCount="0" stopTime="0.00" timeLoss="4.61" rerouteNo="0" devices="tripinfo_S_thru_f2.1" vType="car" speedFactor="0.93" vaporized=""/>
    <tripinfo id="N_thru_f2.2" depart="144.00" departLane="N_thru_2_0" departPos="5.10" departSpeed="0.00" departDelay="0.00" arrival="188.00" arrivalLane="center_to_N_1" arrivalPos="486.40" arrivalSpeed="13.14" duration="44.00" routeLength="545.12" waitingTime="0.00" waitingCount="0" stopTime="0.00" timeLoss="4.57" rerouteNo="0" devices="tripinfo_N_thru_f2.2" vType="car" speedFactor="1.01" vaporized=""/>
    <tripinfo id="N_thru_f1.2" depart="144.00" departLane="N_thru_1_0" departPos="5.10" departSpeed="0.00" departDelay="0.00" arrival="189.00" arrivalLane="center_to_N_0" arrivalPos="486.40" arrivalSpeed="13.46" duration="45.00" routeLength="545.78" waitingTime="0.00" waitingCount="0" stopTime="0.00" timeLoss="5.47" rerouteNo="0" devices="tripinfo_N_thru_f1.2" vType="car" speedFactor="1.02" vaporized=""/>
    <tripinfo id="S_thru_f1.2" depart="144.00" departLane="S_thru_1_0" departPos="5.10" departSpeed="0.00" departDelay="0.00" arrival="189.00" arrivalLane="center_to_S_0" arrivalPos="486.40" arrivalSpeed="12.88" duration="45.00" routeLength="545.78" waitingTime="0.00" waitingCount="0" stopTime="0.00" timeLoss="4.39" rerouteNo="0" devices="tripinfo_S_thru_f1.2" vType="car" speedFactor="0.97" vaporized=""/>
    <tripinfo id="S_thru_f2.2" depart="144.00" departLane="S_thru_2_0" departPos="5.10" departSpeed="0.00" departDelay="0.00" arrival="193.00" arrivalLane="center_to_S_0" arrivalPos="486.40" arrivalSpeed="11.13" duration="49.00" routeLength="545.12" waitingTime="0.00" waitingCount="0" stopTime="0.00" timeLoss="4.67" rerouteNo="0" devices="tripinfo_S_thru_f2.2" vType="car" speedFactor="0.89" vaporized=""/>
    <tripinfo id="E_left_f.1" depart="180.00" departLane="E_left_0" departPos="5.10" departSpeed="0.00" departDelay="0.00" arrival="219.00" arrivalLane="center_to_N_1" arrivalPos="486.40" arrivalSpeed="15.08" duration="39.00" routeLength="537.05" waitingTime="0.00" waitingCount="0" stopTime="0.00" timeLoss="5.07" rerouteNo="0" devices="tripinfo_E_left_f.1" vType="car" speedFactor="1.18" vaporized=""/>
    <tripinfo id="W_left_f.1" depart="180.00" departLane="W_left_0" departPos="5.10" departSpeed="0.00" departDelay="0.00" arrival="220.00" arrivalLane="center_to_S_1" arrivalPos="486.40" arrivalSpeed="14.93" duration="40.00" routeLength="537.05" waitingTime="0.00" waitingCount="0" stopTime="0.00" timeLoss="5.69" rerouteNo="0" devices="tripinfo_W_left_f.1" vType="car" speedFactor="1.15" vaporized=""/>
    <tripinfo id="N_left_f.1" depart="180.00" departLane="N_left_0" departPos="5.10" departSpeed="0.00" departDelay="0.00" arrival="221.00" arrivalLane="center_to_W_0" arrivalPos="486.40" arrivalSpeed="15.00" duration="41.00" routeLength="532.27" waitingTime="0.00" waitingCount="0" stopTime="0.00" timeLoss="5.88" rerouteNo="0" devices="tripinfo_N_left_f.1" vType="car" speedFactor="1.13" vaporized=""/>
    <tripinfo id="S_left_f.1" depart="180.00" departLane="S_left_0" departPos="5.10" departSpeed="0.00" departDelay="0.00" arrival="228.00" arrivalLane="center_to_E_0" arrivalPos="486.40" arrivalSpeed="12.87" duration="48.00" routeLength="532.27" waitingTime="0.00" waitingCount="0" stopTime="0.00" timeLoss="5.63" rerouteNo="0" devices="tripinfo_S_left_f.1" vType="car" speedFactor="0.93" vaporized=""/>
    <tripinfo id="N_thru_f2.3" depart="216.00" departLane="N_thru_2_0" departPos="5.10" departSpeed="0.00" departDelay="0.00" arrival="255.00" arrivalLane="center_to_N_0" arrivalPos="486.40" arrivalSpeed="15.83" duration="39.00" routeLength="545.12" waitingTime="0.00" waitingCount="0" stopTime="0.00" timeLoss="5.37" rerouteNo="0" devices="tripinfo_N_thru_f2.3" vType="car" speedFactor="1.17" vaporized=""/>
    <tripinfo id="N_thru_f1.3" depart="216.00" departLane="N_thru_1_0" departPos="5.10" departSpeed="0.00" departDelay="0.00" arrival="260.00" arrivalLane="center_to_N_0" arrivalPos="486.40" arrivalSpeed="12.69" duration="44.00" routeLength="545.78" waitingTime="0.00" waitingCount="0" stopTime="0.00" timeLoss="4.55" rerouteNo="0" devices="tripinfo_N_thru_f1.3" vType="car" speedFactor="1.01" vaporized=""/>
    <tripinfo id="S_thru_f2.3" depart="216.00" departLane="S_thru_2_0" departPos="5.10" departSpeed="0.00" departDelay="0.00" arrival="260.00" arrivalLane="center_to_S_1" arrivalPos="486.40" arrivalSpeed="13.79" duration="44.00" routeLength="545.12" waitingTime="0.00" waitingCount="0" stopTime="0.00" timeLoss="4.82" rerouteNo="0" devices="tripinfo_S_thru_f2.3" vType="car" speedFactor="1.02" vaporized=""/>
    <tripinfo id="S_thru_f1.3" depart="216.00" departLane="S_thru_1_0" departPos="5.10" departSpeed="0.00" departDelay="0.00" arrival="261.00" arrivalLane="center_to_S_0" arrivalPos="486.40" arrivalSpeed="12.88" duration="45.00" routeLength="545.78" waitingTime="0.00" waitingCount="0" stopTime="0.00" timeLoss="5.14" rerouteNo="0" devices="tripinfo_S_thru_f1.3" vType="car" speedFactor="0.99" vaporized=""/>
    <tripinfo id="S_thru_f1.4" depart="288.00" departLane="S_thru_1_0" departPos="5.10" departSpeed="0.00" departDelay="0.00" arrival="330.00" arrivalLane="center_to_S_0" arrivalPos="486.40" arrivalSpeed="13.92" duration="42.00" routeLength="545.78" waitingTime="0.00" waitingCount="0" stopTime="0.00" timeLoss="5.12" rerouteNo="0" devices="tripinfo_S_thru_f1.4" vType="car" speedFactor="1.09" vaporized=""/>
    <tripinfo id="N_thru_f1.4" depart="288.00" departLane="N_thru_1_0" departPos="5.10" departSpeed="0.00" departDelay="0.00" arrival="331.00" arrivalLane="center_to_N_0" arrivalPos="486.40" arrivalSpeed="13.72" duration="43.00" routeLength="545.78" waitingTime="0.00" waitingCount="0" stopTime="0.00" timeLoss="4.43" rerouteNo="0" devices="tripinfo_N_thru_f1.4" vType="car" speedFactor="1.03" vaporized=""/>
    <tripinfo id="S_thru_f2.4" depart="288.00" departLane="S_thru_2_0" departPos="5.10" departSpeed="0.00" departDelay="0.00" arrival="331.00" arrivalLane="center_to_S_1" arrivalPos="486.40" arrivalSpeed="14.12" duration="43.00" routeLength="545.12" waitingTime="0.00" waitingCount="0" stopTime="0.00" timeLoss="4.93" rerouteNo="0" devices="tripinfo_S_thru_f2.4" vType="car" speedFactor="1.04" vaporized=""/>
    <tripinfo id="N_thru_f2.4" depart="288.00" departLane="N_thru_2_0" departPos="5.10" departSpeed="0.00" departDelay="0.00" arrival="334.00" arrivalLane="center_to_N_0" arrivalPos="486.40" arrivalSpeed="13.07" duration="46.00" routeLength="545.12" waitingTime="0.00" waitingCount="0" stopTime="0.00" timeLoss="4.62" rerouteNo="0" devices="tripinfo_N_thru_f2.4" vType="car" speedFactor="0.96" vaporized=""/>
    <tripinfo id="W_thru_f1.0" depart="0.00" departLane="W_thru_1_0" departPos="5.10" departSpeed="0.00" departDelay="0.00" arrival="342.00" arrivalLane="center_to_W_0" arrivalPos="486.40" arrivalSpeed="13.45" duration="342.00" routeLength="517.70" waitingTime="301.00" waitingCount="1" stopTime="0.00" timeLoss="306.32" rerouteNo="0" devices="tripinfo_W_thru_f1.0" vType="car" speedFactor="1.05" vaporized=""/>
    <tripinfo id="E_thru_f1.0" depart="0.00" departLane="E_thru_1_0" departPos="5.10" departSpeed="0.00" departDelay="0.00" arrival="343.00" arrivalLane="center_to_E_0" arrivalPos="486.40" arrivalSpeed="13.82" duration="343.00" routeLength="517.70" waitingTime="301.00" waitingCount="1" stopTime="0.00" timeLoss="306.50" rerouteNo="0" devices="tripinfo_E_thru_f1.0" vType="car" speedFactor="1.03" vaporized=""/>
    <tripinfo id="W_thru_f2.0" depart="0.00" departLane="W_thru_2_0" departPos="5.10" departSpeed="0.00" departDelay="0.00" arrival="351.00" arrivalLane="center_to_W_0" arrivalPos="486.40" arrivalSpeed="11.24" duration="351.00" routeLength="517.70" waitingTime="301.00" waitingCount="1" stopTime="0.00" timeLoss="309.05" rerouteNo="0" devices="tripinfo_W_thru_f2.0" vType="car" speedFactor="0.89" vaporized=""/>
    <tripinfo id="E_thru_f2.0" depart="0.00" departLane="E_thru_2_0" departPos="5.10" departSpeed="0.00" departDelay="0.00" arrival="354.00" arrivalLane="center_to_E_0" arrivalPos="486.40" arrivalSpeed="10.29" duration="354.00" routeLength="517.70" waitingTime="301.00" waitingCount="1" stopTime="0.00" timeLoss="308.92" rerouteNo="0" devices="tripinfo_E_thru_f2.0" vType="car" speedFactor="0.83" vaporized=""/>
    <tripinfo id="S_thru_f2.5" depart="360.00" departLane="S_thru_2_0" departPos="5.10" departSpeed="0.00" departDelay="0.00" arrival="399.00" arrivalLane="center_to_S_0" arrivalPos="486.40" arrivalSpeed="15.04" duration="39.00" routeLength="545.12" waitingTime="0.00" waitingCount="0" stopTime="0.00" timeLoss="4.84" rerouteNo="0" devices="tripinfo_S_thru_f2.5" vType="car" speedFactor="1.17" vaporized=""/>
    <tripinfo id="S_left_f.2" depart="360.00" departLane="S_left_0" departPos="5.10" departSpeed="0.00" departDelay="0.00" arrival="400.00" arrivalLane="center_to_E_0" arrivalPos="486.40" arrivalSpeed="14.85" duration="40.00" routeLength="532.27" waitingTime="0.00" waitingCount="0" stopTime="0.00" timeLoss="5.61" rerouteNo="0" devices="tripinfo_S_left_f.2" vType="car" speedFactor="1.14" vaporized=""/>
    <tripinfo id="E_left_f.2" depart="360.00" departLane="E_left_0" departPos="5.10" departSpeed="0.00" departDelay="0.00" arrival="404.00" arrivalLane="center_to_N_0" arrivalPos="486.40" arrivalSpeed="13.57" duration="44.00" routeLength="537.05" waitingTime="0.00" waitingCount="0" stopTime="0.00" timeLoss="5.38" rerouteNo="0" devices="tripinfo_E_left_f.2" vType="car" speedFactor="1.02" vaporized=""/>
    <tripinfo id="W_left_f.2" depart="360.00" departLane="W_left_0" departPos="5.10" departSpeed="0.00" departDelay="0.00" arrival="406.00" arrivalLane="center_to_S_0" arrivalPos="486.40" arrivalSpeed="12.23" duration="46.00" routeLength="537.05" waitingTime="0.00" waitingCount="0" stopTime="0.00" timeLoss="5.41" rerouteNo="0" devices="tripinfo_W_left_f.2" vType="car" speedFactor="0.97" vaporized=""/>
    <tripinfo id="N_left_f.2" depart="360.00" departLane="N_left_0" departPos="5.10" departSpeed="0.00" departDelay="0.00" arrival="409.00" arrivalLane="center_to_W_0" arrivalPos="486.40" arrivalSpeed="12.33" duration="49.00" routeLength="532.27" waitingTime="0.00" waitingCount="0" stopTime="0.00" timeLoss="5.34" rerouteNo="0" devices="tripinfo_N_left_f.2" vType="car" speedFactor="0.90" vaporized=""/>
    <tripinfo id="N_thru_f1.5" depart="360.00" departLane="N_thru_1_0" departPos="5.10" departSpeed="0.00" departDelay="0.00" arrival="410.00" arrivalLane="center_to_N_0" arrivalPos="486.40" arrivalSpeed="11.36" duration="50.00" routeLength="545.78" waitingTime="0.00" waitingCount="0" stopTime="0.00" timeLoss="4.74" rerouteNo="0" devices="tripinfo_N_thru_f1.5" vType="car" speedFactor="0.88" vaporized=""/>
    <tripinfo id="N_thru_f2.5" depart="360.00" departLane="N_thru_2_0" departPos="5.10" departSpeed="0.00" departDelay="0.00" arrival="412.00" arrivalLane="center_to_N_1" arrivalPos="486.40" arrivalSpeed="11.13" duration="52.00" routeLength="545.12" waitingTime="0.00" waitingCount="0" stopTime="0.00" timeLoss="5.14" rerouteNo="0" devices="tripinfo_N_thru_f2.5" vType="car" speedFactor="0.85" vaporized=""/>
    <tripinfo id="S_thru_f1.5" depart="360.00" departLane="S_thru_1_0" departPos="5.10" departSpeed="0.00" departDelay="0.00" arrival="412.00" arrivalLane="center_to_S_0" arrivalPos="486.40" arrivalSpeed="11.40" duration="52.00" routeLength="545.78" waitingTime="0.00" waitingCount="0" stopTime="0.00" timeLoss="5.14" rerouteNo="0" devices="tripinfo_S_thru_f1.5" vType="car" speedFactor="0.85" vaporized=""/>
    <tripinfo id="N_thru_f2.6" depart="432.00" departLane="N_thru_2_0" departPos="5.10" departSpeed="0.00" departDelay="0.00" arrival="473.00" arrivalLane="center_to_N_1" arrivalPos="486.40" arrivalSpeed="14.52" duration="41.00" routeLength="545.12" waitingTime="0.00" waitingCount="0" stopTime="0.00" timeLoss="5.07" rerouteNo="0" devices="tripinfo_N_thru_f2.6" vType="car" speedFactor="1.12" vaporized=""/>
    <tripinfo id="N_thru_f1.6" depart="432.00" departLane="N_thru_1_0" departPos="5.10" departSpeed="0.00" departDelay="0.00" arrival="474.00" arrivalLane="center_to_N_0" arrivalPos="486.40" arrivalSpeed="14.14" duration="42.00" routeLength="545.78" waitingTime="0.00" waitingCount="0" stopTime="0.00" timeLoss="4.77" rerouteNo="0" devices="tripinfo_N_thru_f1.6" vType="car" speedFactor="1.08" vaporized=""/>
    <tripinfo id="S_thru_f1.6" depart="432.00" departLane="S_thru_1_0" departPos="5.10" departSpeed="0.00" departDelay="0.00" arrival="477.00" arrivalLane="center_to_S_0" arrivalPos="486.40" arrivalSpeed="13.91" duration="45.00" routeLength="545.78" waitingTime="0.00" waitingCount="0" stopTime="0.00" timeLoss="5.75" rerouteNo="0" devices="tripinfo_S_thru_f1.6" vType="car" speedFactor="1.02" vaporized=""/>
    <tripinfo id="S_thru_f2.6" depart="432.00" departLane="S_thru_2_0" departPos="5.10" departSpeed="0.00" departDelay="0.00" arrival="477.00" arrivalLane="center_to_S_1" arrivalPos="486.40" arrivalSpeed="12.50" duration="45.00" routeLength="545.12" waitingTime="0.00" waitingCount="0" stopTime="0.00" timeLoss="5.13" rerouteNo="0" devices="tripinfo_S_thru_f2.6" vType="car" speedFactor="0.99" vaporized=""/>
    <tripinfo id="N_thru_f1.7" depart="504.00" departLane="N_thru_1_0" departPos="5.10" departSpeed="0.00" departDelay="0.00" arrival="547.00" arrivalLane="center_to_N_0" arrivalPos="486.40" arrivalSpeed="13.68" duration="43.00" routeLength="545.78" waitingTime="0.00" waitingCount="0" stopTime="0.00" timeLoss="4.98" rerouteNo="0" devices="tripinfo_N_thru_f1.7" vType="car" speedFactor="1.04" vaporized=""/>
    <tripinfo id="N_thru_f2.7" depart="504.00" departLane="N_thru_2_0" departPos="5.10" departSpeed="0.00" departDelay="0.00" arrival="548.00" arrivalLane="center_to_N_0" arrivalPos="486.40" arrivalSpeed="13.33" duration="44.00" routeLength="545.12" waitingTime="0.00" waitingCount="0" stopTime="0.00" timeLoss="4.76" rerouteNo="0" devices="tripinfo_N_thru_f2.7" vType="car" speedFactor="1.02" vaporized=""/>
    <tripinfo id="S_thru_f1.7" depart="504.00" departLane="S_thru_1_0" departPos="5.10" departSpeed="0.00" departDelay="0.00" arrival="548.00" arrivalLane="center_to_S_0" arrivalPos="486.40" arrivalSpeed="13.94" duration="44.00" routeLength="545.78" waitingTime="0.00" waitingCount="0" stopTime="0.00" timeLoss="5.34" rerouteNo="0" devices="tripinfo_S_thru_f1.7" vType="car" speedFactor="1.02" vaporized=""/>
    <tripinfo id="S_thru_f2.7" depart="504.00" departLane="S_thru_2_0" departPos="5.10" departSpeed="0.00" departDelay="0.00" arrival="550.00" arrivalLane="center_to_S_1" arrivalPos="486.40" arrivalSpeed="13.44" duration="46.00" routeLength="545.12" waitingTime="0.00" waitingCount="0" stopTime="0.00" timeLoss="5.06" rerouteNo="0" devices="tripinfo_S_thru_f2.7" vType="car" speedFactor="0.97" vaporized=""/>
    <tripinfo id="W_left_f.3" depart="540.00" departLane="W_left_0" departPos="5.10" departSpeed="0.00" departDelay="0.00" arrival="582.00" arrivalLane="center_to_S_1" arrivalPos="486.40" arrivalSpeed="14.66" duration="42.00" routeLength="537.05" waitingTime="0.00" waitingCount="0" stopTime="0.00" timeLoss="5.58" rerouteNo="0" devices="tripinfo_W_left_f.3" vType="car" speedFactor="1.09" vaporized=""/>
    <tripinfo id="N_left_f.3" depart="540.00" departLane="N_left_0" departPos="5.10" departSpeed="0.00" departDelay="0.00" arrival="584.00" arrivalLane="center_to_W_0" arrivalPos="486.40" arrivalSpeed="14.13" duration="44.00" routeLength="532.27" waitingTime="0.00" waitingCount="0" stopTime="0.00" timeLoss="5.96" rerouteNo="0" devices="tripinfo_N_left_f.3" vType="car" speedFactor="1.03" vaporized=""/>
    <tripinfo id="E_left_f.3" depart="540.00" departLane="E_left_0" departPos="5.10" departSpeed="0.00" departDelay="0.00" arrival="585.00" arrivalLane="center_to_N_0" arrivalPos="486.40" arrivalSpeed="13.35" duration="45.00" routeLength="537.05" waitingTime="0.00" waitingCount="0" stopTime="0.00" timeLoss="5.50" rerouteNo="0" devices="tripinfo_E_left_f.3" vType="car" speedFactor="1.01" vaporized=""/>
    <tripinfo id="S_left_f.3" depart="540.00" departLane="S_left_0" departPos="5.10" departSpeed="0.00" departDelay="0.00" arrival="586.00" arrivalLane="center_to_E_0" arrivalPos="486.40" arrivalSpeed="12.47" duration="46.00" routeLength="532.27" waitingTime="0.00" waitingCount="0" stopTime="0.00" timeLoss="6.10" rerouteNo="0" devices="tripinfo_S_left_f.3" vType="car" speedFactor="0.98" vaporized=""/>
    <tripinfo id="N_thru_f1.8" depart="576.00" departLane="N_thru_1_0" departPos="5.10" departSpeed="0.00" departDelay="0.00" arrival="619.00" arrivalLane="center_to_N_0" arrivalPos="486.40" arrivalSpeed="14.24" duration="43.00" routeLength="545.78" waitingTime="0.00" waitingCount="0" stopTime="0.00" timeLoss="4.08" rerouteNo="0" devices="tripinfo_N_thru_f1.8" vType="car" speedFactor="1.03" vaporized=""/>
    <tripinfo id="S_thru_f1.8" depart="576.00" departLane="S_thru_1_0" departPos="5.10" departSpeed="0.00" departDelay="0.00" arrival="620.00" arrivalLane="center_to_S_0" arrivalPos="486.40" arrivalSpeed="13.14" duration="44.00" routeLength="545.78" waitingTime="0.00" waitingCount="0" stopTime="0.00" timeLoss="4.76" rerouteNo="0" devices="tripinfo_S_thru_f1.8" vType="car" speedFactor="1.02" vaporized=""/>
    <tripinfo id="N_thru_f2.8" depart="576.00" departLane="N_thru_2_0" departPos="5.10" departSpeed="0.00" departDelay="0.00" arrival="621.00" arrivalLane="center_to_N_0" arrivalPos="486.40" arrivalSpeed="13.45" duration="45.00" routeLength="545.12" waitingTime="0.00" waitingCount="0" stopTime="0.00" timeLoss="5.19" rerouteNo="0" devices="tripinfo_N_thru_f2.8" vType="car" speedFactor="1.00" vaporized=""/>
    <tripinfo id="S_thru_f2.8" depart="576.00" departLane="S_thru_2_0" departPos="5.10" departSpeed="0.00" departDelay="0.00" arrival="622.00" arrivalLane="center_to_S_0" arrivalPos="486.40" arrivalSpeed="12.68" duration="46.00" routeLength="545.12" waitingTime="0.00" waitingCount="0" stopTime="0.00" timeLoss="5.07" rerouteNo="0" devices="tripinfo_S_thru_f2.8" vType="car" speedFactor="0.97" vaporized=""/>
    <tripinfo id="W_thru_f2.1" depart="72.00" departLane="W_thru_2_0" departPos="5.10" departSpeed="0.00" departDelay="0.00" arrival="646.00" arrivalLane="center_to_W_1" arrivalPos="486.40" arrivalSpeed="15.63" duration="574.00" routeLength="517.70" waitingTime="531.00" waitingCount="2" stopTime="0.00" timeLoss="541.57" rerouteNo="0" devices="tripinfo_W_thru_f2.1" vType="car" speedFactor="1.16" vaporized=""/>
    <tripinfo id="W_thru_f1.1" depart="72.00" departLane="W_thru_1_0" departPos="5.10" departSpeed="0.00" departDelay="0.00" arrival="651.00" arrivalLane="center_to_W_0" arrivalPos="486.40" arrivalSpeed="11.86" duration="579.00" routeLength="517.70" waitingTime="530.00" waitingCount="2" stopTime="0.00" timeLoss="538.79" rerouteNo="0" devices="tripinfo_W_thru_f1.1" vType="car" speedFactor="0.94" vaporized=""/>
    <tripinfo id="E_thru_f2.1" depart="72.00" departLane="E_thru_2_0" departPos="5.10" departSpeed="0.00" departDelay="0.00" arrival="653.00" arrivalLane="center_to_E_1" arrivalPos="486.40" arrivalSpeed="12.44" duration="581.00" routeLength="517.70" waitingTime="531.00" waitingCount="2" stopTime="0.00" timeLoss="541.58" rerouteNo="0" devices="tripinfo_E_thru_f2.1" vType="car" speedFactor="0.94" vaporized=""/>
    <tripinfo id="E_thru_f1.1" depart="72.00" departLane="E_thru_1_0" departPos="5.10" departSpeed="0.00" departDelay="0.00" arrival="654.00" arrivalLane="center_to_E_0" arrivalPos="486.40" arrivalSpeed="11.40" duration="582.00" routeLength="517.70" waitingTime="530.00" waitingCount="2" stopTime="0.00" timeLoss="539.81" rerouteNo="0" devices="tripinfo_E_thru_f1.1" vType="car" speedFactor="0.88" vaporized=""/>
    <tripinfo id="N_thru_f1.9" depart="648.00" departLane="N_thru_1_0" departPos="5.10" departSpeed="0.00" departDelay="0.00" arrival="692.00" arrivalLane="center_to_N_0" arrivalPos="486.40" arrivalSpeed="13.68" duration="44.00" routeLength="545.78" waitingTime="0.00" waitingCount="0" stopTime="0.00" timeLoss="4.58" rerouteNo="0" devices="tripinfo_N_thru_f1.9" vType="car" speedFactor="1.01" vaporized=""/>
    <tripinfo id="N_thru_f2.9" depart="648.00" departLane="N_thru_2_0" departPos="5.10" departSpeed="0.00" departDelay="0.00" arrival="692.00" arrivalLane="center_to_N_1" arrivalPos="486.40" arrivalSpeed="14.18" duration="44.00" routeLength="545.12" waitingTime="0.00" waitingCount="0" stopTime="0.00" timeLoss="4.86" rerouteNo="0" devices="tripinfo_N_thru_f2.9" vType="car" speedFactor="1.02" vaporized=""/>
    <tripinfo id="S_thru_f1.9" depart="648.00" departLane="S_thru_1_0" departPos="5.10" departSpeed="0.00" departDelay="0.00" arrival="692.00" arrivalLane="center_to_S_0" arrivalPos="486.40" arrivalSpeed="14.04" duration="44.00" routeLength="545.78" waitingTime="0.00" waitingCount="0" stopTime="0.00" timeLoss="4.39" rerouteNo="0" devices="tripinfo_S_thru_f1.9" vType="car" speedFactor="1.02" vaporized=""/>
    <tripinfo id="S_thru_f2.9" depart="648.00" departLane="S_thru_2_0" departPos="5.10" departSpeed="0.00" departDelay="0.00" arrival="697.00" arrivalLane="center_to_S_0" arrivalPos="486.40" arrivalSpeed="11.72" duration="49.00" routeLength="545.12" waitingTime="0.00" waitingCount="0" stopTime="0.00" timeLoss="4.91" rerouteNo="0" devices="tripinfo_S_thru_f2.9" vType="car" speedFactor="0.89" vaporized=""/>
    <tripinfo id="S_thru_f1.10" depart="720.00" departLane="S_thru_1_0" departPos="5.10" departSpeed="0.00" departDelay="0.00" arrival="761.00" arrivalLane="center_to_S_0" arrivalPos="486.40" arrivalSpeed="15.24" duration="41.00" routeLength="545.78" waitingTime="0.00" waitingCount="0" stopTime="0.00" timeLoss="5.03" rerouteNo="0" devices="tripinfo_S_thru_f1.10" vType="car" speedFactor="1.12" vaporized=""/>
    <tripinfo id="S_thru_f2.10" depart="720.00" departLane="S_thru_2_0" departPos="5.10" departSpeed="0.00" departDelay="0.00" arrival="761.00" arrivalLane="center_to_S_1" arrivalPos="486.40" arrivalSpeed="14.20" duration="41.00" routeLength="545.12" waitingTime="0.00" waitingCount="0" stopTime="0.00" timeLoss="4.66" rerouteNo="0" devices="tripinfo_S_thru_f2.10" vType="car" speedFactor="1.10" vaporized=""/>
    <tripinfo id="S_left_f.4" depart="720.00" departLane="S_left_0" departPos="5.10" departSpeed="0.00" departDelay="0.00" arrival="763.00" arrivalLane="center_to_E_0" arrivalPos="486.40" arrivalSpeed="13.77" duration="43.00" routeLength="532.27" waitingTime="0.00" waitingCount="0" stopTime="0.00" timeLoss="6.20" rerouteNo="0" devices="tripinfo_S_left_f.4" vType="car" speedFactor="1.07" vaporized=""/>
    <tripinfo id="E_left_f.4" depart="720.00" departLane="E_left_0" departPos="5.10" departSpeed="0.00" departDelay="0.00" arrival="764.00" arrivalLane="center_to_N_1" arrivalPos="486.40" arrivalSpeed="13.98" duration="44.00" routeLength="537.05" waitingTime="0.00" waitingCount="0" stopTime="0.00" timeLoss="4.72" rerouteNo="0" devices="tripinfo_E_left_f.4" vType="car" speedFactor="1.01" vaporized=""/>
    <tripinfo id="W_left_f.4" depart="720.00" departLane="W_left_0" departPos="5.10" departSpeed="0.00" departDelay="0.00" arrival="764.00" arrivalLane="center_to_S_1" arrivalPos="486.40" arrivalSpeed="14.14" duration="44.00" routeLength="537.05" waitingTime="0.00" waitingCount="0" stopTime="0.00" timeLoss="5.25" rerouteNo="0" devices="tripinfo_W_left_f.4" vType="car" speedFactor="1.03" vaporized=""/>
    <tripinfo id="N_thru_f1.10" depart="720.00" departLane="N_thru_1_0" departPos="5.10" departSpeed="0.00" departDelay="0.00" arrival="765.00" arrivalLane="center_to_N_0" arrivalPos="486.40" arrivalSpeed="12.79" duration="45.00" routeLength="545.78" waitingTime="0.00" waitingCount="0" stopTime="0.00" timeLoss="5.33" rerouteNo="0" devices="tripinfo_N_thru_f1.10" vType="car" speedFactor="1.01" vaporized=""/>