<?xml version="1.0" encoding="UTF-8"?>

<!-- generated on 2026-04-13T12:47:33.722490-05:00 by Eclipse SUMO sumo 1.25.0
<sumoConfiguration xmlns:xsi="http://www.w3.org/2001/XMLSchema-instance" xsi:noNamespaceSchemaLocation="http://sumo.dlr.de/xsd/sumoConfiguration.xsd">

    <input>
        <net-file value="/home/gribel/Capstone/sumo/network/intersection.net.xml"/>
        <route-files value="/home/gribel/Capstone/sumo/demand/east_west_heavy.rou.xml"/>
    </input>

    <output>
        <tripinfo-output value="/home/gribel/Capstone/sumo/config/tripinfo_8816.xml"/>
        <tripinfo-output.write-unfinished value="true"/>
    </output>

    <time>
        <begin value="0"/>
        <end value="21600"/>
        <step-length value="1.0"/>
    </time>

    <processing>
        <no-internal-links value="false"/>
        <time-to-teleport value="300"/>
        <max-depart-delay value="60"/>
    </processing>

    <report>
        <no-step-log value="true"/>
    </report>

    <traci_server>
        <remote-port value="8816"/>
    </traci_server>

    <gui_only>
        <quit-on-end value="true"/>
    </gui_only>

</sumoConfiguration>
-->

<tripinfos xmlns:xsi="http://www.w3.org/2001/XMLSchema-instance" xsi:noNamespaceSchemaLocation="http://sumo.dlr.de/xsd/tripinfo_file.xsd">
    <tripinfo id="S_thru_f2.0" depart="0.00" departLane="S_thru_2_0" departPos="5.10" departSpeed="0.00" departDelay="0.00" arrival="41.00" arrivalLane="center_to_S_0" arrivalPos="486.40" arrivalSpeed="14.87" duration="41.00" routeLength="545.12" waitingTime="0.00" waitingCount="0" stopTime="0.00" timeLoss="4.34" rerouteNo="0" devices="tripinfo_S_thru_f2.0" vType="car" speedFactor="1.08" vaporized=""/>
    <tripinfo id="N_thru_f1.0" depart="0.00" departLane="N_thru_1_0" departPos="5.10" departSpeed="0.00" departDelay="0.00" arrival="42.00" arrivalLane="center_to_N_0" arrivalPos="486.40" arrivalSpeed="14.28" duration="42.00" routeLength="545.78" waitingTime="0.00" waitingCount="0" stopTime="0.00" timeLoss="4.61" rerouteNo="0" devices="tripinfo_N_thru_f1.0" vType="car" speedFactor="1.06" vaporized=""/>
    <tripinfo id="E_left_f.0" depart="0.00" departLane="E_left_0" departPos="5.10" departSpeed="0.00" departDelay="0.00" arrival="42.00" arrivalLane="center_to_N_1" arrivalPos="486.40" arrivalSpeed="14.72" duration="42.00" routeLength="537.05" waitingTime="0.00" waitingCount="0" stopTime="0.00" timeLoss="5.31" rerouteNo="0" devices="tripinfo_E_left_f.0" vType="car" speedFactor="1.09" vaporized=""/>
    <tripinfo id="W_left_f.0" depart="0.00" departLane="W_left_0" departPos="5.10" departSpeed="0.00" departDelay="0.00" arrival="44.00" arrivalLane="center_to_S_1" arrivalPos="486.40" arrivalSpeed="13.49" duration="44.00" routeLength="537.05" waitingTime="0.00" waitingCount="0" stopTime="0.00" timeLoss="5.22" rerouteNo="0" devices="tripinfo_W_left_f.0" vType="car" speedFactor="1.03" vaporized=""/>
    <tripinfo id="S_thru_f1.0" depart="0.00" departLane="S_thru_1_0" departPos="5.10" departSpeed="0.00" departDelay="0.00" arrival="45.00" arrivalLane="center_to_S_0" arrivalPos="486.40" arrivalSpeed="13.25" duration="45.00" routeLength="545.78" waitingTime="0.00" waitingCount="0" stopTime="0.00" timeLoss="5.56" rerouteNo="0" devices="tripinfo_S_thru_f1.0" vType="car" speedFactor="1.01" vaporized=""/>
    <tripinfo id="N_thru_f2.0" depart="0.00" departLane="N_thru_2_0" departPos="5.10" departSpeed="0.00" departDelay="0.00" arrival="47.00" arrivalLane="center_to_N_0" arrivalPos="486.40" arrivalSpeed="12.25" duration="47.00" routeLength="545.12" waitingTime="0.00" waitingCount="0" stopTime="0.00" timeLoss="4.96" rerouteNo="0" devices="tripinfo_N_thru_f2.0" vType="car" speedFactor="0.94" vaporized=""/>
    <tripinfo id="N_left_f.0" depart="0.00" departLane="N_left_0" departPos="5.10" departSpeed="0.00" departDelay="0.00" arrival="48.00" arrivalLane="center_to_W_0" arrivalPos="486.40" arrivalSpeed="12.58" duration="48.00" routeLength="532.27" waitingTime="0.00" waitingCount="0" stopTime="0.00" timeLoss="5.92" rerouteNo="0" devices="tripinfo_N_left_f.0" vType="car" speedFactor="0.94" vaporized=""/>
    <tripinfo id="S_left_f.0" depart="0.00" departLane="S_left_0" departPos="5.10" departSpeed="0.00" departDelay="0.00" arrival="51.00" arrivalLane="center_to_E_0" arrivalPos="486.40" arrivalSpeed="11.78" duration="51.00" routeLength="532.27" waitingTime="0.00" waitingCount="0" stopTime="0.00" timeLoss="5.28" rerouteNo="0" devices="tripinfo_S_left_f.0" vType="car" speedFactor="0.86" vaporized=""/>
    <tripinfo id="W_left_f.1" depart="24.00" departLane="W_left_0" departPos="5.10" departSpeed="0.00" departDelay="0.00" arrival="72.00" arrivalLane="center_to_S_0" arrivalPos="486.40" arrivalSpeed="12.08" duration="48.00" routeLength="537.05" waitingTime="0.00" waitingCount="0" stopTime="0.00" timeLoss="5.93" rerouteNo="0" devices="tripinfo_W_left_f.1" vType="car" speedFactor="0.94" vaporized=""/>
    <tripinfo id="E_left_f.1" depart="24.00" departLane="E_left_0" departPos="5.10" departSpeed="0.00" departDelay="0.00" arrival="75.00" arrivalLane="center_to_N_0" arrivalPos="486.40" arrivalSpeed="11.77" duration="51.00" routeLength="537.05" waitingTime="0.00" waitingCount="0" stopTime="0.00" timeLoss="5.57" rerouteNo="0" devices="tripinfo_E_left_f.1" vType="car" speedFactor="0.88" vaporized=""/>
    <tripinfo id="W_left_f.2" depart="48.00" departLane="W_left_0" departPos="5.10" departSpeed="0.00" departDelay="0.00" arrival="96.00" arrivalLane="center_to_S_0" arrivalPos="486.40" arrivalSpeed="12.86" duration="48.00" routeLength="537.05" waitingTime="0.00" waitingCount="0" stopTime="0.00" timeLoss="5.66" rerouteNo="0" devices="tripinfo_W_left_f.2" vType="car" speedFactor="0.95" vaporized=""/>
    <tripinfo id="E_left_f.2" depart="48.00" departLane="E_left_0" departPos="5.10" departSpeed="0.00" departDelay="0.00" arrival="97.00" arrivalLane="center_to_N_0" arrivalPos="486.40" arrivalSpeed="12.66" duration="49.00" routeLength="537.05" waitingTime="0.00" waitingCount="0" stopTime="0.00" timeLoss="5.70" rerouteNo="0" devices="tripinfo_E_left_f.2" vType="car" speedFactor="0.92" vaporized=""/>
    <tripinfo id="N_thru_f2.1" depart="72.00" departLane="N_thru_2_0" departPos="5.10" departSpeed="0.00" departDelay="0.00" arrival="111.00" arrivalLane="center_to_N_0" arrivalPos="486.40" arrivalSpeed="15.05" duration="39.00" routeLength="545.12" waitingTime="0.00" waitingCount="0" stopTime="0.00" timeLoss="5.10" rerouteNo="0" devices="tripinfo_N_thru_f2.1" vType="car" speedFactor="1.17" vaporized=""/>
    <tripinfo id="N_thru_f1.1" depart="72.00" departLane="N_thru_1_0" departPos="5.10" departSpeed="0.00" departDelay="0.00" arrival="116.00" arrivalLane="center_to_N_0" arrivalPos="486.40" arrivalSpeed="13.85" duration="44.00" routeLength="545.78" waitingTime="0.00" waitingCount="0" stopTime="0.00" timeLoss="4.71" rerouteNo="0" devices="tripinfo_N_thru_f1.1" vType="car" speedFactor="1.01" vaporized=""/>
    <tripinfo id="S_thru_f1.1" depart="72.00" departLane="S_thru_1_0" departPos="5.10" departSpeed="0.00" departDelay="0.00" arrival="116.00" arrivalLane="center_to_S_0" arrivalPos="486.40" arrivalSpeed="13.07" duration="44.00" routeLength="545.78" waitingTime="0.00" waitingCount="0" stopTime="0.00" timeLoss="4.38" rerouteNo="0" devices="tripinfo_S_thru_f1.1" vType="car" speedFactor="0.99" vaporized=""/>
    <tripinfo id="S_thru_f2.1" depart="72.00" departLane="S_thru_2_0" departPos="5.10" departSpeed="0.00" departDelay="0.00" arrival="116.00" arrivalLane="center_to_S_1" arrivalPos="486.40" arrivalSpeed="13.34" duration="44.00" routeLength="545.12" waitingTime="0.00" waitingCount="0" stopTime="0.00" timeLoss="4.62" rerouteNo="0" devices="tripinfo_S_thru_f2.1" vType="car" speedFactor="1.02" vaporized=""/>
    <tripinfo id="E_left_f.3" depart="72.00" departLane="E_left_0" departPos="5.10" departSpeed="0.00" departDelay="0.00" arrival="116.00" arrivalLane="center_to_N_1" arrivalPos="486.40" arrivalSpeed="13.85" duration="44.00" routeLength="537.05" waitingTime="0.00" waitingCount="0" stopTime="0.00" timeLoss="5.15" rerouteNo="0" devices="tripinfo_E_left_f.3" vType="car" speedFactor="1.03" vaporized=""/>
    <tripinfo id="W_left_f.3" depart="72.00" departLane="W_left_0" departPos="5.10" departSpeed="0.00" departDelay="0.00" arrival="119.00" arrivalLane="center_to_S_0" arrivalPos="486.40" arrivalSpeed="12.19" duration="47.00" routeLength="537.05" waitingTime="0.00" waitingCount="0" stopTime="0.00" timeLoss="5.42" rerouteNo="0" devices="tripinfo_W_left_f.3" vType="car" speedFactor="0.96" vaporized=""/>
    <tripinfo id="E_left_f.4" depart="96.00" departLane="E_left_0" departPos="5.10" departSpeed="0.00" departDelay="0.00" arrival="141.00" arrivalLane="center_to_N_0" arrivalPos="486.40" arrivalSpeed="13.68" duration="45.00" routeLength="537.05" waitingTime="0.00" waitingCount="0" stopTime="0.00" timeLoss="5.08" rerouteNo="0" devices="tripinfo_E_left_f.4" vType="car" speedFactor="1.00" vaporized=""/>
    <tripinfo id="W_left_f.4" depart="96.00" departLane="W_left_0" departPos="5.10" departSpeed="0.00" departDelay="0.00" arrival="146.00" arrivalLane="center_to_S_0" arrivalPos="486.40" arrivalSpeed="12.39" duration="50.00" routeLength="537.05" waitingTime="0.00" waitingCount="0" stopTime="0.00" timeLoss="5.61" rerouteNo="0" devices="tripinfo_W_left_f.4" vType="car" speedFactor="0.90" vaporized=""/>
    <tripinfo id="W_left_f.5" depart="120.00" departLane="W_left_0" departPos="5.10" departSpeed="0.00" departDelay="0.00" arrival="161.00" arrivalLane="center_to_S_1" arrivalPos="486.40" arrivalSpeed="14.97" duration="41.00" routeLength="537.05" waitingTime="0.00" waitingCount="0" stopTime="0.00" timeLoss="5.91" rerouteNo="0" devices="tripinfo_W_left_f.5" vType="car" speedFactor="1.14" vaporized=""/>
    <tripinfo id="E_left_f.5" depart="120.00" departLane="E_left_0" departPos="5.10" departSpeed="0.00" departDelay="0.00" arrival="169.00" arrivalLane="center_to_N_0" arrivalPos="486.40" arrivalSpeed="12.43" duration="49.00" routeLength="537.05" waitingTime="0.00" waitingCount="0" stopTime="0.00" timeLoss="5.30" rerouteNo="0" devices="tripinfo_E_left_f.5" vType="car" speedFactor="0.90" vaporized=""/>
    <tripinfo id="W_left_f.6" depart="144.00" departLane="W_left_0" departPos="5.10" departSpeed="0.00" departDelay="0.00" arrival="187.00" arrivalLane="center_to_S_1" arrivalPos="486.40" arrivalSpeed="13.77" duration="43.00" routeLength="537.05" waitingTime="0.00" waitingCount="0" stopTime="0.00" timeLoss="5.60" rerouteNo="0" devices="tripinfo_W_left_f.6" vType="car" speedFactor="1.06" vaporized=""/>
    <tripinfo id="N_thru_f1.2" depart="144.00" departLane="N_thru_1_0" departPos="5.10" departSpeed="0.00" departDelay="0.00" arrival="188.00" arrivalLane="center_to_N_0" arrivalPos="486.40" arrivalSpeed="14.05" duration="44.00" routeLength="545.78" waitingTime="0.00" waitingCount="0" stopTime="0.00" timeLoss="5.09" rerouteNo="0" devices="tripinfo_N_thru_f1.2" vType="car" speedFactor="1.02" vaporized=""/>
    <tripinfo id="N_thru_f2.2" depart="144.00" departLane="N_thru_2_0" departPos="5.10" departSpeed="0.00" departDelay="0.00" arrival="189.00" arrivalLane="center_to_N_0" arrivalPos="486.40" arrivalSpeed="12.45" duration="45.00" routeLength="545.12" waitingTime="0.00" waitingCount="0" stopTime="0.00" timeLoss="4.50" rerouteNo="0" devices="tripinfo_N_thru_f2.2" vType="car" speedFactor="0.99" vaporized=""/>
    <tripinfo id="N_left_f.1" depart="144.00" departLane="N_left_0" departPos="5.10" departSpeed="0.00" departDelay="0.00" arrival="189.00" arrivalLane="center_to_W_0" arrivalPos="486.40" arrivalSpeed="14.20" duration="45.00" routeLength="532.27" waitingTime="0.00" waitingCount="0" stopTime="0.00" timeLoss="5.85" rerouteNo="0" devices="tripinfo_N_left_f.1" vType="car" speedFactor="1.02" vaporized=""/>
    <tripinfo id="S_left_f.1" depart="144.00" departLane="S_left_0" departPos="5.10" departSpeed="0.00" departDelay="0.00" arrival="190.00" arrivalLane="center_to_E_0" arrivalPos="486.40" arrivalSpeed="12.97" duration="46.00" routeLength="532.27" waitingTime="0.00" waitingCount="0" stopTime="0.00" timeLoss="5.64" rerouteNo="0" devices="tripinfo_S_left_f.1" vType="car" speedFactor="0.97" vaporized=""/>
    <tripinfo id="S_thru_f1.2" depart="144.00" departLane="S_thru_1_0" departPos="5.10" departSpeed="0.00" departDelay="0.00" arrival="191.00" arrivalLane="center_to_S_0" arrivalPos="486.40" arrivalSpeed="12.54" duration="47.00" routeLength="545.78" waitingTime="0.00" waitingCount="0" stopTime="0.00" timeLoss="4.76" rerouteNo="0" devices="tripinfo_S_thru_f1.2" vType="car" speedFactor="0.94" vaporized=""/>
    <tripinfo id="E_left_f.6" depart="144.00" departLane="E_left_0" departPos="5.10" departSpeed="0.00" departDelay="0.00" arrival="192.00" arrivalLane="center_to_N_0" arrivalPos="486.40" arrivalSpeed="12.16" duration="48.00" routeLength="537.05" waitingTime="0.00" waitingCount="0" stopTime="0.00" timeLoss="5.54" rerouteNo="0" devices="tripinfo_E_left_f.6" vType="car" speedFactor="0.94" vaporized=""/>
    <tripinfo id="S_thru_f2.2" depart="144.00" departLane="S_thru_2_0" departPos="5.10" departSpeed="0.00" departDelay="0.00" arrival="193.00" arrivalLane="center_to_S_0" arrivalPos="486.40" arrivalSpeed="11.29" duration="49.00" routeLength="545.12" waitingTime="0.00" waitingCount="0" stopTime="0.00" timeLoss="4.24" rerouteNo="0" devices="tripinfo_S_thru_f2.2" vType="car" speedFactor="0.88" vaporized=""/>
    <tripinfo id="W_left_f.7" depart="168.00" departLane="W_left_0" departPos="5.10" departSpeed="0.00" departDelay="0.00" arrival="210.00" arrivalLane="center_to_S_1" arrivalPos="486.40" arrivalSpeed="13.97" duration="42.00" routeLength="537.05" waitingTime="0.00" waitingCount="0" stopTime="0.00" timeLoss="5.54" rerouteNo="0" devices="tripinfo_W_left_f.7" vType="car" speedFactor="1.09" vaporized=""/>
    <tripinfo id="E_left_f.7" depart="168.00" departLane="E_left_0" departPos="5.10" departSpeed="0.00" departDelay="0.00" arrival="213.00" arrivalLane="center_to_N_0" arrivalPos="486.40" arrivalSpeed="12.85" duration="45.00" routeLength="537.05" waitingTime="0.00" waitingCount="0" stopTime="0.00" timeLoss="5.37" rerouteNo="0" devices="tripinfo_E_left_f.7" vType="car" speedFactor="1.01" vaporized=""/>
    <tripinfo id="W_left_f.8" depart="192.00" departLane="W_left_0" departPos="5.10" departSpeed="0.00" departDelay="0.00" arrival="236.00" arrivalLane="center_to_S_0" arrivalPos="486.40" arrivalSpeed="13.64" duration="44.00" routeLength="537.05" waitingTime="0.00" waitingCount="0" stopTime="0.00" timeLoss="5.22" rerouteNo="0" devices="tripinfo_W_left_f.8" vType="car" speedFactor="1.02" vaporized=""/>
    <tripinfo id="E_left_f.8" depart="192.00" departLane="E_left_0" departPos="5.10" departSpeed="0.00" departDelay="0.00" arrival="237.00" arrivalLane="center_to_N_0" arrivalPos="486.40" arrivalSpeed="13.01" duration="45.00" routeLength="537.05" waitingTime="0.00" waitingCount="0" stopTime="0.00" timeLoss="5.48" rerouteNo="0" devices="tripinfo_E_left_f.8" vType="car" speedFactor="1.01" vaporized=""/>
    <tripinfo id="N_thru_f1.3" depart="216.00" departLane="N_thru_1_0" departPos="5.10" departSpeed="0.00" departDelay="0.00" arrival="257.00" arrivalLane="center_to_N_0" arrivalPos="486.40" arrivalSpeed="14.91" duration="41.00" routeLength="545.78" waitingTime="0.00" waitingCount="0" stopTime="0.00" timeLoss="4.50" rerouteNo="0" devices="tripinfo_N_thru_f1.3" vType="car" speedFactor="1.09" vaporized=""/>
    <tripinfo id="N_thru_f2.3" depart="216.00" departLane="N_thru_2_0" departPos="5.10" departSpeed="0.00" departDelay="0.00" arrival="259.00" arrivalLane="center_to_N_1" arrivalPos="486.40" arrivalSpeed="14.65" duration="43.00" routeLength="545.12" waitingTime="0.00" waitingCount="0" stopTime="0.00" timeLoss="4.96" rerouteNo="0" devices="tripinfo_N_thru_f2.3" vType="car" speedFactor="1.06" vaporized=""/>
    <tripinfo id="S_thru_f1.3" depart="216.00" departLane="S_thru_1_0" departPos="5.10" departSpeed="0.00" departDelay="0.00" arrival="261.00" arrivalLane="center_to_S_0" arrivalPos="486.40" arrivalSpeed="12.98" duration="45.00" routeLength="545.78" waitingTime="0.00" waitingCount="0" stopTime="0.00" timeLoss="5.47" rerouteNo="0" devices="tripinfo_S_thru_f1.3" vType="car" speedFactor="1.01" vaporized=""/>
    <tripinfo id="E_left_f.9" depart="216.00" departLane="E_left_0" departPos="5.10" departSpeed="0.00" departDelay="0.00" arrival="263.00" arrivalLane="center_to_N_0" arrivalPos="486.40" arrivalSpeed="12.70" duration="47.00" routeLength="537.05" waitingTime="0.00" waitingCount="0" stopTime="0.00" timeLoss="6.05" rerouteNo="0" devices="tripinfo_E_left_f.9" vType="car" speedFactor="0.97" vaporized=""/>
    <tripinfo id="W_left_f.9" depart="216.00" departLane="W_left_0" departPos="5.10" departSpeed="0.00" departDelay="0.00" arrival="263.00" arrivalLane="center_to_S_1" arrivalPos="486.40" arrivalSpeed="12.51" duration="47.00" routeLength="537.05" waitingTime="0.00" waitingCount="0" stopTime="0.00" timeLoss="5.28" rerouteNo="0" devices="tripinfo_W_left_f.9" vType="car" speedFactor="0.95" vaporized=""/>
    <tripinfo id="S_thru_f2.3" depart="216.00" departLane="S_thru_2_0" departPos="5.10" departSpeed="0.00" departDelay="0.00" arrival="265.00" arrivalLane="center_to_S_0" arrivalPos="486.40" arrivalSpeed="11.53" duration="49.00" routeLength="545.12" waitingTime="0.00" waitingCount="0" stopTime="0.00" timeLoss="5.41" rerouteNo="0" devices="tripinfo_S_thru_f2.3" vType="car" speedFactor="0.91" vaporized=""/>
    <tripinfo id="E_left_f.10" depart="240.00" departLane="E_left_0" departPos="5.10" departSpeed="0.00" departDelay="0.00" arrival="283.00" arrivalLane="center_to_N_0" arrivalPos="486.40" arrivalSpeed="14.52" duration="43.00" routeLength="537.05" waitingTime="0.00" waitingCount="0" stopTime="0.00" timeLoss="5.25" rerouteNo="0" devices="tripinfo_E_left_f.10" vType="car" speedFactor="1.06" vaporized=""/>
    <tripinfo id="W_left_f.10" depart="240.00" departLane="W_left_0" departPos="5.10" departSpeed="0.00" departDelay="0.00" arrival="287.00" arrivalLane="center_to_S_0" arrivalPos="486.40" arrivalSpeed="13.09" duration="47.00" routeLength="537.05" waitingTime="0.00" waitingCount="0" stopTime="0.00" timeLoss="5.83" rerouteNo="0" devices="tripinfo_W_left_f.10" vType="car" speedFactor="0.96" vaporized=""/>
    <tripinfo id="W_left_f.11" depart="264.00" departLane="W_left_0" departPos="5.10" departSpeed="0.00" departDelay="0.00" arrival="307.00" arrivalLane="center_to_S_0" arrivalPos="486.40" arrivalSpeed="14.48" duration="43.00" routeLength="537.05" waitingTime="0.00" waitingCount="0" stopTime="0.00" timeLoss="5.38" rerouteNo="0" devices="tripinfo_W_left_f.11" vType="car" speedFactor="1.07" vaporized=""/>
    <tripinfo id="E_left_f.11" depart="264.00" departLane="E_left_0" departPos="5.10" departSpeed="0.00" departDelay="0.00" arrival="310.00" arrivalLane="center_to_N_0" arrivalPos="486.40" arrivalSpeed="13.02" duration="46.00" routeLength="537.05" waitingTime="0.00" waitingCount="0" stopTime="0.00" timeLoss="5.70" rerouteNo="0" devices="tripinfo_E_left_f.11" vType="car" speedFactor="0.99" vaporized=""/>
    <tripinfo id="E_left_f.12" depart="288.00" departLane="E_left_0" departPos="5.10" departSpeed="0.00" departDelay="0.00" arrival="326.00" arrivalLane="center_to_N_1" arrivalPos="486.40" arrivalSpeed="15.85" duration="38.00" routeLength="537.05" waitingTime="0.00" waitingCount="0" stopTime="0.00" timeLoss="4.98" rerouteNo="0" devices="tripinfo_E_left_f.12" vType="car" speedFactor="1.23" vaporized=""/>
    <tripinfo id="N_thru_f2.4" depart="288.00" departLane="N_thru_2_0" departPos="5.10" departSpeed="0.00" departDelay="0.00" arrival="328.00" arrivalLane="center_to_N_0" arrivalPos="486.40" arrivalSpeed="15.99" duration="40.00" routeLength="545.12" waitingTime="0.00" waitingCount="0" stopTime="0.00" timeLoss="5.12" rerouteNo="0" devices="tripinfo_N_thru_f2.4" vType="car" speedFactor="1.15" vaporized=""/>
    <tripinfo id="N_thru_f1.4" depart="288.00" departLane="N_thru_1_0" departPos="5.10" departSpeed="0.00" departDelay="0.00" arrival="330.00" arrivalLane="center_to_N_0" arrivalPos="486.40" arrivalSpeed="13.49" duration="42.00" routeLength="545.78" waitingTime="0.00" waitingCount="0" stopTime="0.00" timeLoss="4.81" rerouteNo="0" devices="tripinfo_N_thru_f1.4" vType="car" speedFactor="1.06" vaporized=""/>
    <tripinfo id="S_thru_f1.4" depart="288.00" departLane="S_thru_1_0" departPos="5.10" departSpeed="0.00" departDelay="0.00" arrival="331.00" arrivalLane="center_to_S_0" arrivalPos="486.40" arrivalSpeed="14.22" duration="43.00" routeLength="545.78" waitingTime="0.00" waitingCount="0" stopTime="0.00" timeLoss="4.82" rerouteNo="0" devices="tripinfo_S_thru_f1.4" vType="car" speedFactor="1.03" vaporized=""/>
    <tripinfo id="S_left_f.2" depart="288.00" departLane="S_left_0" departPos="5.10" departSpeed="0.00" departDelay="0.00" arrival="332.00" arrivalLane="center_to_E_0" arrivalPos="486.40" arrivalSpeed="14.38" duration="44.00" routeLength="532.27" waitingTime="0.00" waitingCount="0" stopTime="0.00" timeLoss="5.81" rerouteNo="0" devices="tripinfo_S_left_f.2" vType="car" speedFactor="1.04" vaporized=""/>
    <tripinfo id="W_left_f.12" depart="288.00" departLane="W_left_0" departPos="5.10" departSpeed="0.00" departDelay="0.00" arrival="333.00" arrivalLane="center_to_S_1" arrivalPos="486.40" arrivalSpeed="13.17" duration="45.00" routeLength="537.05" waitingTime="0.00" waitingCount="0" stopTime="0.00" timeLoss="5.34" rerouteNo="0" devices="tripinfo_W_left_f.12" vType="car" speedFactor="1.01" vaporized=""/>
    <tripinfo id="N_left_f.2" depart="288.00" departLane="N_left_0" departPos="5.10" departSpeed="0.00" departDelay="0.00" arrival="335.00" arrivalLane="center_to_W_0" arrivalPos="486.40" arrivalSpeed="12.26" duration="47.00" routeLength="532.27" waitingTime="0.00" waitingCount="0" stopTime="0.00" timeLoss="5.56" rerouteNo="0" devices="tripinfo_N_left_f.2" vType="car" speedFactor="0.96" vaporized=""/>
    <tripinfo id="W_thru_f1.0" depart="0.00" departLane="W_thru_1_0" departPos="5.10" departSpeed="0.00" departDelay="0.00" arrival="342.00" arrivalLane="center_to_W_0" arrivalPos="486.40" arrivalSpeed="14.30" duration="342.00" routeLength="517.70" waitingTime="301.00" waitingCount="1" stopTime="0.00" timeLoss="306.64" rerouteNo="0" devices="tripinfo_W_thru_f1.0" vType="car" speedFactor="1.05" vaporized=""/>
    <tripinfo id="S_thru_f2.4" depart="288.00" departLane="S_thru_2_0" departPos="5.10" departSpeed="0.00" departDelay="0.00" arrival="342.00" arrivalLane="center_to_S_0" arrivalPos="486.40" arrivalSpeed="10.38" duration="54.00" routeLength="545.12" waitingTime="0.00" waitingCount="0" stopTime="0.00" timeLoss="5.44" rerouteNo="0" devices="tripinfo_S_thru_f2.4" vType="car" speedFactor="0.82" vaporized=""/>
    <tripinfo id="E_thru_f1.0" depart="0.00" departLane="E_thru_1_0" departPos="5.10" departSpeed="0.00" departDelay="0.00" arrival="343.00" arrivalLane="center_to_E_0" arrivalPos="486.40" arrivalSpeed="13.74" duration="343.00" routeLength="517.70" waitingTime="301.00" waitingCount="1" stopTime="0.00" timeLoss="306.32" rerouteNo="0" devices="tripinfo_E_thru_f1.0" vType="car" speedFactor="1.03" vaporized=""/>
    <tripinfo id="W_thru_f2.0" depart="0.00" departLane="W_thru_2_0" departPos="5.10" departSpeed="0.00" departDelay="0.00" arrival="351.00" arrivalLane="center_to_W_0" arrivalPos="486.40" arrivalSpeed="12.23" duration="351.00" routeLength="517.70" waitingTime="301.00" waitingCount="1" stopTime="0.00" timeLoss="308.59" rerouteNo="0" devices="tripinfo_W_thru_f2.0" vType="car" speedFactor="0.89" vaporized=""/>
    <tripinfo id="W_left_f.13" depart="312.00" departLane="W_left_0" departPos="5.10" departSpeed="0.00" departDelay="0.00" arrival="352.00" arrivalLane="center_to_S_1" arrivalPos="486.40" arrivalSpeed="15.66" duration="40.00" routeLength="537.05" waitingTime="0.00" waitingCount="0" stopTime="0.00" timeLoss="5.49" rerouteNo="0" devices="tripinfo_W_left_f.13" vType="car" speedFactor="1.16" vaporized=""/>
    <tripinfo id="E_left_f.13" depart="312.00" departLane="E_left_0" departPos="5.10" departSpeed="0.00" departDelay="0.00" arrival="353.00" arrivalLane="center_to_N_1" arrivalPos="486.40" arrivalSpeed="15.42" duration="41.00" routeLength="537.05" waitingTime="0.00" waitingCount="0" stopTime="0.00" timeLoss="5.58" rerouteNo="0" devices="tripinfo_E_left_f.13" vType="car" speedFactor="1.11" vaporized=""/>
    <tripinfo id="E_thru_f2.0" depart="0.00" departLane="E_thru_2_0" departPos="5.10" departSpeed="0.00" departDelay="0.00" arrival="354.00" arrivalLane="center_to_E_0" arrivalPos="486.40" arrivalSpeed="10.90" duration="354.00" routeLength="517.70" waitingTime="301.00" waitingCount="1" stopTime="0.00" timeLoss="308.81" rerouteNo="0" devices="tripinfo_E_thru_f2.0" vType="car" speedFactor="0.83" vaporized=""/>
    <tripinfo id="W_left_f.14" depart="336.00" departLane="W_left_0" departPos="5.10" departSpeed="0.00" departDelay="0.00" arrival="381.00" arrivalLane="center_to_S_0" arrivalPos="486.40" arrivalSpeed="13.58" duration="45.00" routeLength="537.05" waitingTime="0.00" waitingCount="0" stopTime="0.00" timeLoss="5.38" rerouteNo="0" devices="tripinfo_W_left_f.14" vType="car" speedFactor="1.00" vaporized=""/>
    <tripinfo id="E_left_f.14" depart="336.00" departLane="E_left_0" departPos="5.10" departSpeed="0.00" departDelay="0.00" arrival="383.00" arrivalLane="center_to_N_0" arrivalPos="486.40" arrivalSpeed="12.22" duration="47.00" routeLength="537.05" waitingTime="0.00" waitingCount="0" stopTime="0.00" timeLoss="5.71" rerouteNo="0" devices="tripinfo_E_left_f.14" vType="car" speedFactor="0.96" vaporized=""/>
    <tripinfo id="N_thru_f1.5" depart="360.00" departLane="N_thru_1_0" departPos="5.10" departSpeed="0.00" departDelay="0.00" arrival="399.00" arrivalLane="center_to_N_0" arrivalPos="486.40" arrivalSpeed="15.64" duration="39.00" routeLength="545.78" waitingTime="0.00" waitingCount="0" stopTime="0.00" timeLoss="4.75" rerouteNo="0" devices="tripinfo_N_thru_f1.5" vType="car" speedFactor="1.18" vaporized=""/>
    <tripinfo id="S_thru_f2.5" depart="360.00" departLane="S_thru_2_0" departPos="5.10" departSpeed="0.00" departDelay="0.00" arrival="399.00" arrivalLane="center_to_S_0" arrivalPos="486.40" arrivalSpeed="15.19" duration="39.00" routeLength="545.12" waitingTime="0.00" waitingCount="0" stopTime="0.00" timeLoss="4.44" rerouteNo="0" devices="tripinfo_S_thru_f2.5" vType="car" speedFactor="1.14" vaporized=""/>
    <tripinfo id="N_thru_f2.5" depart="360.00" departLane="N_thru_2_0" departPos="5.10" departSpeed="0.00" departDelay="0.00" arrival="402.00" arrivalLane="center_to_N_0" arrivalPos="486.40" arrivalSpeed="14.58" duration="42.00" routeLength="545.12" waitingTime="0.00" waitingCount="0" stopTime="0.00" timeLoss="4.76" rerouteNo="0" devices="tripinfo_N_thru_f2.5" vType="car" speedFactor="1.08" vaporized=""/>
    <tripinfo id="E_left_f.15" depart="360.00" departLane="E_left_0" departPos="5.10" departSpeed="0.00" departDelay="0.00" arrival="403.00" arrivalLane="center_to_N_2" arrivalPos="486.40" arrivalSpeed="13.46" duration="43.00" routeLength="537.05" waitingTime="0.00" waitingCount="0" stopTime="0.00" timeLoss="5.55" rerouteNo="0" devices="tripinfo_E_left_f.15" vType="car" speedFactor="1.05" vaporized=""/>
    <tripinfo id="S_thru_f1.5" depart="360.00" departLane="S_thru_1_0" departPos="5.10" departSpeed="0.00" departDelay="0.00" arrival="409.00" arrivalLane="center_to_S_0" arrivalPos="486.40" arrivalSpeed="12.46" duration="49.00" routeLength="545.78" waitingTime="0.00" waitingCount="0" stopTime="0.00" timeLoss="4.84" rerouteNo="0" devices="tripinfo_S_thru_f1.5" vType="car" speedFactor="0.91" vaporized=""/>
    <tripinfo id="W_left_f.15" depart="360.00" departLane="W_left_0" departPos="5.10" departSpeed="0.00" departDelay="0.00" arrival="409.00" arrivalLane="center_to_S_1" arrivalPos="486.40" arrivalSpeed="12.42" duration="49.00" routeLength="537.05" waitingTime="0.00" waitingCount="0" stopTime="0.00" timeLoss="5.69" rerouteNo="0" devices="tripinfo_W_left_f.15" vType="car" speedFactor="0.91" vaporized=""/>
    <tripinfo id="E_left_f.16" depart="384.00" departLane="E_left_0" departPos="5.10" departSpeed="0.00" departDelay="0.00" arrival="426.00" arrivalLane="center_to_N_1" arrivalPos="486.40" arrivalSpeed="14.46" duration="42.00" routeLength="537.05" waitingTime="0.00" waitingCount="0" stopTime="0.00" timeLoss="5.39" rerouteNo="0" devices="tripinfo_E_left_f.16" vType="car" speedFactor="1.09" vaporized=""/>
    <tripinfo id="W_left_f.16" depart="384.00" departLane="W_left_0" departPos="5.10" departSpeed="0.00" departDelay="0.00" arrival="435.00" arrivalLane="center_to_S_0" arrivalPos="486.40" arrivalSpeed="12.28" duration="51.00" routeLength="537.05" waitingTime="0.00" waitingCount="0" stopTime="0.00" timeLoss="5.98" rerouteNo="0" devices="tripinfo_W_left_f.16" vType="car" speedFactor="0.90" vaporized=""/>
    <tripinfo id="E_left_f.17" depart="408.00" departLane="E_left_0" departPos="5.10" departSpeed="0.00" departDelay="0.00" arrival="450.00" arrivalLane="center_to_N_1" arrivalPos="486.40" arrivalSpeed="14.31" duration="42.00" routeLength="537.05" waitingTime="0.00" waitingCount="0" stopTime="0.00" timeLoss="5.32" rerouteNo="0" devices="tripinfo_E_left_f.17" vType="car" speedFactor="1.10" vaporized=""/>
    <tripinfo id="W_left_f.17" depart="408.00" departLane="W_left_0" departPos="5.10" departSpeed="0.00" departDelay="0.00" arrival="452.00" arrivalLane="center_to_S_0" arrivalPos="486.40" arrivalSpeed="14.05" duration="44.00" routeLength="537.05" waitingTime="0.00" waitingCount="0" stopTime="0.00" timeLoss="5.50" rerouteNo="0" devices="tripinfo_W_left_f.17" vType="car" speedFactor="1.03" vaporized=""/>