<?xml version="1.0" encoding="UTF-8"?>

<!-- generated on 2026-04-13T12:47:33.726566-05:00 by Eclipse SUMO sumo 1.25.0
<sumoConfiguration xmlns:xsi="http://www.w3.org/2001/XMLSchema-instance" xsi:noNamespaceSchemaLocation="http://sumo.dlr.de/xsd/sumoConfiguration.xsd">

    <input>
        <net-file value="/home/gribel/Capstone/sumo/network/intersection.net.xml"/>
        <route-files value="/home/gribel/Capstone/sumo/demand/evening_rush.rou.xml"/>
    </input>

    <output>
        <tripinfo-output value="/home/gribel/Capstone/sumo/config/tripinfo_8815.xml"/>
        <tripinfo-output.write-unfinished value="true"/>
    </output>

    <time>
        <begin value="0"/>
        <end value="21600"/>
        <step-length value="1.0"/>
    </time>

    <processing>
        <no-internal-links value="false"/>
        <time-to-teleport value="300"/>
        <max-depart-delay value="60"/>
    </processing>

    <report>
        <no-step-log value="true"/>
    </report>

    <traci_server>
        <remote-port value="8815"/>
    </traci_server>

    <gui_only>
        <quit-on-end value="true"/>
    </gui_only>

</sumoConfiguration>
-->

<tripinfos xmlns:xsi="http://www.w3.org/2001/XMLSchema-instance" xsi:noNamespaceSchemaLocation="http://sumo.dlr.de/xsd/tripinfo_file.xsd">
    <tripinfo id="S_thru_f2.0" depart="0.00" departLane="S_thru_2_0" departPos="5.10" departSpeed="0.00" departDelay="0.00" arrival="41.00" arrivalLane="center_to_S_0" arrivalPos="486.40" arrivalSpeed="14.47" duration="41.00" routeLength="545.12" waitingTime="0.00" waitingCount="0" stopTime="0.00" timeLoss="4.39" rerouteNo="0" devices="tripinfo_S_thru_f2.0" vType="car" speedFactor="1.08" vaporized=""/>
    <tripinfo id="N_thru_f1.0" depart="0.00" departLane="N_thru_1_0" departPos="5.10" departSpeed="0.00" departDelay="0.00" arrival="42.00" arrivalLane="center_to_N_0" arrivalPos="486.40" arrivalSpeed="14.28" duration="42.00" routeLength="545.78" waitingTime="0.00" waitingCount="0" stopTime="0.00" timeLoss="4.61" rerouteNo="0" devices="tripinfo_N_thru_f1.0" vType="car" speedFactor="1.06" vaporized=""/>
    <tripinfo id="E_left_f.0" depart="0.00" departLane="E_left_0" departPos="5.10" departSpeed="0.00" departDelay="0.00" arrival="42.00" arrivalLane="center_to_N_1" arrivalPos="486.40" arrivalSpeed="14.66" duration="42.00" routeLength="537.05" waitingTime="0.00" waitingCount="0" stopTime="0.00" timeLoss="5.31" rerouteNo="0" devices="tripinfo_E_left_f.0" vType="car" speedFactor="1.09" vaporized=""/>
    <tripinfo id="W_left_f.0" depart="0.00" departLane="W_left_0" departPos="5.10" departSpeed="0.00" departDelay="0.00" arrival="44.00" arrivalLane="center_to_S_1" arrivalPos="486.40" arrivalSpeed="13.61" duration="44.00" routeLength="537.05" waitingTime="0.00" waitingCount="0" stopTime="0.00" timeLoss="5.12" rerouteNo="0" devices="tripinfo_W_left_f.0" vType="car" speedFactor="1.03" vaporized=""/>
    <tripinfo id="S_thru_f1.0" depart="0.00" departLane="S_thru_1_0" departPos="5.10" departSpeed="0.00" departDelay="0.00" arrival="45.00" arrivalLane="center_to_S_0" arrivalPos="486.40" arrivalSpeed="13.18" duration="45.00" routeLength="545.78" waitingTime="0.00" waitingCount="0" stopTime="0.00" timeLoss="5.35" rerouteNo="0" devices="tripinfo_S_thru_f1.0" vType="car" speedFactor="1.01" vaporized=""/>
    <tripinfo id="N_thru_f2.0" depart="0.00" departLane="N_thru_2_0" departPos="5.10" departSpeed="0.00" departDelay="0.00" arrival="47.00" arrivalLane="center_to_N_0" arrivalPos="486.40" arrivalSpeed="11.77" duration="47.00" routeLength="545.12" waitingTime="0.00" waitingCount="0" stopTime="0.00" timeLoss="5.01" rerouteNo="0" devices="tripinfo_N_thru_f2.0" vType="car" speedFactor="0.94" vaporized=""/>
    <tripinfo id="N_left_f.0" depart="0.00" departLane="N_left_0" departPos="5.10" departSpeed="0.00" departDelay="0.00" arrival="48.00" arrivalLane="center_to_W_0" arrivalPos="486.40" arrivalSpeed="12.58" duration="48.00" routeLength="532.27" waitingTime="0.00" waitingCount="0" stopTime="0.00" timeLoss="5.92" rerouteNo="0" devices="tripinfo_N_left_f.0" vType="car" speedFactor="0.94" vaporized=""/>
    <tripinfo id="S_left_f.0" depart="0.00" departLane="S_left_0" departPos="5.10" departSpeed="0.00" departDelay="0.00" arrival="51.00" arrivalLane="center_to_E_0" arrivalPos="486.40" arrivalSpeed="11.69" duration="51.00" routeLength="532.27" waitingTime="0.00" waitingCount="0" stopTime="0.00" timeLoss="5.24" rerouteNo="0" devices="tripinfo_S_left_f.0" vType="car" speedFactor="0.86" vaporized=""/>
    <tripinfo id="S_thru_f2.1" depart="12.00" departLane="S_thru_2_0" departPos="5.10" departSpeed="0.00" departDelay="0.00" arrival="52.00" arrivalLane="center_to_S_0" arrivalPos="486.40" arrivalSpeed="14.54" duration="40.00" routeLength="545.12" waitingTime="0.00" waitingCount="0" stopTime="0.00" timeLoss="4.69" rerouteNo="0" devices="tripinfo_S_thru_f2.1" vType="car" speedFactor="1.12" vaporized=""/>
    <tripinfo id="S_thru_f1.1" depart="12.00" departLane="S_thru_1_0" departPos="5.10" departSpeed="0.00" departDelay="0.00" arrival="54.00" arrivalLane="center_to_S_0" arrivalPos="486.40" arrivalSpeed="14.51" duration="42.00" routeLength="545.78" waitingTime="0.00" waitingCount="0" stopTime="0.00" timeLoss="4.39" rerouteNo="0" devices="tripinfo_S_thru_f1.1" vType="car" speedFactor="1.05" vaporized=""/>
    <tripinfo id="S_thru_f1.2" depart="24.00" departLane="S_thru_1_0" departPos="5.10" departSpeed="0.00" departDelay="0.00" arrival="69.00" arrivalLane="center_to_S_0" arrivalPos="486.40" arrivalSpeed="12.98" duration="45.00" routeLength="545.78" waitingTime="0.00" waitingCount="0" stopTime="0.00" timeLoss="4.55" rerouteNo="0" devices="tripinfo_S_thru_f1.2" vType="car" speedFactor="0.99" vaporized=""/>
    <tripinfo id="S_thru_f2.2" depart="24.00" departLane="S_thru_2_0" departPos="5.10" departSpeed="0.00" departDelay="0.00" arrival="71.00" arrivalLane="center_to_S_0" arrivalPos="486.40" arrivalSpeed="12.12" duration="47.00" routeLength="545.12" waitingTime="0.00" waitingCount="0" stopTime="0.00" timeLoss="4.62" rerouteNo="0" devices="tripinfo_S_thru_f2.2" vType="car" speedFactor="0.93" vaporized=""/>
    <tripinfo id="S_left_f.1" depart="24.00" departLane="S_left_0" departPos="5.10" departSpeed="0.00" departDelay="0.00" arrival="75.00" arrivalLane="center_to_E_0" arrivalPos="486.40" arrivalSpeed="11.71" duration="51.00" routeLength="532.27" waitingTime="0.00" waitingCount="0" stopTime="0.00" timeLoss="5.80" rerouteNo="0" devices="tripinfo_S_left_f.1" vType="car" speedFactor="0.88" vaporized=""/>
    <tripinfo id="S_thru_f1.3" depart="36.00" departLane="S_thru_1_0" departPos="5.10" departSpeed="0.00" departDelay="0.00" arrival="76.00" arrivalLane="center_to_S_0" arrivalPos="486.40" arrivalSpeed="15.04" duration="40.00" routeLength="545.78" waitingTime="0.00" waitingCount="0" stopTime="0.00" timeLoss="5.39" rerouteNo="0" devices="tripinfo_S_thru_f1.3" vType="car" speedFactor="1.16" vaporized=""/>
    <tripinfo id="S_thru_f2.3" depart="36.00" departLane="S_thru_2_0" departPos="5.10" departSpeed="0.00" departDelay="0.00" arrival="80.00" arrivalLane="center_to_S_0" arrivalPos="486.40" arrivalSpeed="13.35" duration="44.00" routeLength="545.12" waitingTime="0.00" waitingCount="0" stopTime="0.00" timeLoss="4.92" rerouteNo="0" devices="tripinfo_S_thru_f2.3" vType="car" speedFactor="1.02" vaporized=""/>
    <tripinfo id="N_thru_f1.1" depart="36.00" departLane="N_thru_1_0" departPos="5.10" departSpeed="0.00" departDelay="0.00" arrival="83.00" arrivalLane="center_to_N_0" arrivalPos="486.40" arrivalSpeed="12.48" duration="47.00" routeLength="545.78" waitingTime="0.00" waitingCount="0" stopTime="0.00" timeLoss="4.99" rerouteNo="0" devices="tripinfo_N_thru_f1.1" vType="car" speedFactor="0.94" vaporized=""/>
    <tripinfo id="N_thru_f2.1" depart="36.00" departLane="N_thru_2_0" departPos="5.10" departSpeed="0.00" departDelay="0.00" arrival="83.00" arrivalLane="center_to_N_1" arrivalPos="486.40" arrivalSpeed="12.94" duration="47.00" routeLength="545.12" waitingTime="0.00" waitingCount="0" stopTime="0.00" timeLoss="4.69" rerouteNo="0" devices="tripinfo_N_thru_f2.1" vType="car" speedFactor="0.94" vaporized=""/>
    <tripinfo id="S_thru_f2.4" depart="48.00" departLane="S_thru_2_0" departPos="5.10" departSpeed="0.00" departDelay="0.00" arrival="96.00" arrivalLane="center_to_S_0" arrivalPos="486.40" arrivalSpeed="12.74" duration="48.00" routeLength="545.12" waitingTime="0.00" waitingCount="0" stopTime="0.00" timeLoss="5.14" rerouteNo="0" devices="tripinfo_S_thru_f2.4" vType="car" speedFactor="0.92" vaporized=""/>
    <tripinfo id="S_left_f.2" depart="48.00" departLane="S_left_0" departPos="5.10" departSpeed="0.00" departDelay="0.00" arrival="96.00" arrivalLane="center_to_E_0" arrivalPos="486.40" arrivalSpeed="12.70" duration="48.00" routeLength="532.27" waitingTime="0.00" waitingCount="0" stopTime="0.00" timeLoss="5.96" rerouteNo="0" devices="tripinfo_S_left_f.2" vType="car" speedFactor="0.95" vaporized=""/>
    <tripinfo id="S_thru_f1.4" depart="48.00" departLane="S_thru_1_0" departPos="5.10" departSpeed="0.00" departDelay="0.00" arrival="99.00" arrivalLane="center_to_S_0" arrivalPos="486.40" arrivalSpeed="10.89" duration="51.00" routeLength="545.78" waitingTime="0.00" waitingCount="0" stopTime="0.00" timeLoss="5.49" rerouteNo="0" devices="tripinfo_S_thru_f1.4" vType="car" speedFactor="0.87" vaporized=""/>
    <tripinfo id="S_thru_f1.5" depart="60.00" departLane="S_thru_1_0" departPos="5.10" departSpeed="0.00" departDelay="0.00" arrival="100.00" arrivalLane="center_to_S_1" arrivalPos="486.40" arrivalSpeed="15.14" duration="40.00" routeLength="545.78" waitingTime="0.00" waitingCount="0" stopTime="0.00" timeLoss="4.86" rerouteNo="0" devices="tripinfo_S_thru_f1.5" vType="car" speedFactor="1.13" vaporized=""/>
    <tripinfo id="S_thru_f2.5" depart="60.00" departLane="S_thru_2_0" departPos="5.10" departSpeed="0.00" departDelay="0.00" arrival="107.00" arrivalLane="center_to_S_0" arrivalPos="486.40" arrivalSpeed="11.88" duration="47.00" routeLength="545.12" waitingTime="0.00" waitingCount="0" stopTime="0.00" timeLoss="4.72" rerouteNo="0" devices="tripinfo_S_thru_f2.5" vType="car" speedFactor="0.93" vaporized=""/>
    <tripinfo id="N_thru_f1.2" depart="72.00" departLane="N_thru_1_0" departPos="5.10" departSpeed="0.00" departDelay="0.00" arrival="111.00" arrivalLane="center_to_N_0" arrivalPos="486.40" arrivalSpeed="15.44" duration="39.00" routeLength="545.78" waitingTime="0.00" waitingCount="0" stopTime="0.00" timeLoss="5.23" rerouteNo="0" devices="tripinfo_N_thru_f1.2" vType="car" speedFactor="1.18" vaporized=""/>
    <tripinfo id="N_thru_f2.2" depart="72.00" departLane="N_thru_2_0" departPos="5.10" departSpeed="0.00" departDelay="0.00" arrival="111.00" arrivalLane="center_to_N_1" arrivalPos="486.40" arrivalSpeed="14.84" duration="39.00" routeLength="545.12" waitingTime="0.00" waitingCount="0" stopTime="0.00" timeLoss="4.83" rerouteNo="0" devices="tripinfo_N_thru_f2.2" vType="car" speedFactor="1.15" vaporized=""/>
    <tripinfo id="S_thru_f2.6" depart="72.00" departLane="S_thru_2_0" departPos="5.10" departSpeed="0.00" departDelay="0.00" arrival="111.00" arrivalLane="center_to_S_1" arrivalPos="486.40" arrivalSpeed="15.36" duration="39.00" routeLength="545.12" waitingTime="0.00" waitingCount="0" stopTime="0.00" timeLoss="5.08" rerouteNo="0" devices="tripinfo_S_thru_f2.6" vType="car" speedFactor="1.17" vaporized=""/>
    <tripinfo id="N_left_f.1" depart="72.00" departLane="N_left_0" departPos="5.10" departSpeed="0.00" departDelay="0.00" arrival="114.00" arrivalLane="center_to_W_0" arrivalPos="486.40" arrivalSpeed="14.59" duration="42.00" routeLength="532.27" waitingTime="0.00" waitingCount="0" stopTime="0.00" timeLoss="5.83" rerouteNo="0" devices="tripinfo_N_left_f.1" vType="car" speedFactor="1.10" vaporized=""/>
    <tripinfo id="E_left_f.1" depart="72.00" departLane="E_left_0" departPos="5.10" departSpeed="0.00" departDelay="0.00" arrival="116.00" arrivalLane="center_to_N_0" arrivalPos="486.40" arrivalSpeed="13.06" duration="44.00" routeLength="537.05" waitingTime="0.00" waitingCount="0" stopTime="0.00" timeLoss="5.33" rerouteNo="0" devices="tripinfo_E_left_f.1" vType="car" speedFactor="1.03" vaporized=""/>
    <tripinfo id="S_thru_f1.6" depart="72.00" departLane="S_thru_1_0" departPos="5.10" departSpeed="0.00" departDelay="0.00" arrival="117.00" arrivalLane="center_to_S_0" arrivalPos="486.40" arrivalSpeed="13.58" duration="45.00" routeLength="545.78" waitingTime="0.00" waitingCount="0" stopTime="0.00" timeLoss="5.57" rerouteNo="0" devices="tripinfo_S_thru_f1.6" vType="car" speedFactor="1.01" vaporized=""/>
    <tripinfo id="W_left_f.1" depart="72.00" departLane="W_left_0" departPos="5.10" departSpeed="0.00" departDelay="0.00" arrival="120.00" arrivalLane="center_to_S_0" arrivalPos="486.40" arrivalSpeed="13.14" duration="48.00" routeLength="537.05" waitingTime="0.00" waitingCount="0" stopTime="0.00" timeLoss="6.04" rerouteNo="0" devices="tripinfo_W_left_f.1" vType="car" speedFactor="0.96" vaporized=""/>
    <tripinfo id="S_left_f.3" depart="72.00" departLane="S_left_0" departPos="5.10" departSpeed="0.00" departDelay="0.00" arrival="122.00" arrivalLane="center_to_E_0" arrivalPos="486.40" arrivalSpeed="12.11" duration="50.00" routeLength="532.27" waitingTime="0.00" waitingCount="0" stopTime="0.00" timeLoss="6.08" rerouteNo="0" devices="tripinfo_S_left_f.3" vType="car" speedFactor="0.90" vaporized=""/>
    <tripinfo id="S_thru_f1.7" depart="84.00" departLane="S_thru_1_0" departPos="5.10" departSpeed="0.00" departDelay="0.00" arrival="126.00" arrivalLane="center_to_S_0" arrivalPos="486.40" arrivalSpeed="14.18" duration="42.00" routeLength="545.78" waitingTime="0.00" waitingCount="0" stopTime="0.00" timeLoss="5.19" rerouteNo="0" devices="tripinfo_S_thru_f1.7" vType="car" speedFactor="1.09" vaporized=""/>
    <tripinfo id="S_thru_f2.7" depart="84.00" departLane="S_thru_2_0" departPos="5.10" departSpeed="0.00" departDelay="0.00" arrival="127.00" arrivalLane="center_to_S_1" arrivalPos="486.40" arrivalSpeed="13.56" duration="43.00" routeLength="545.12" waitingTime="0.00" waitingCount="0" stopTime="0.00" timeLoss="5.15" rerouteNo="0" devices="tripinfo_S_thru_f2.7" vType="car" speedFactor="1.04" vaporized=""/>
    <tripinfo id="S_thru_f2.8" depart="96.00" departLane="S_thru_2_0" departPos="5.10" departSpeed="0.00" departDelay="0.00" arrival="137.00" arrivalLane="center_to_S_0" arrivalPos="486.40" arrivalSpeed="14.23" duration="41.00" routeLength="545.12" waitingTime="0.00" waitingCount="0" stopTime="0.00" timeLoss="4.71" rerouteNo="0" devices="tripinfo_S_thru_f2.8" vType="car" speedFactor="1.09" vaporized=""/>
    <tripinfo id="S_thru_f1.8" depart="96.00" departLane="S_thru_1_0" departPos="5.10" departSpeed="0.00" departDelay="0.00" arrival="139.00" arrivalLane="center_to_S_0" arrivalPos="486.40" arrivalSpeed="14.29" duration="43.00" routeLength="545.78" waitingTime="0.00" waitingCount="0" stopTime="0.00" timeLoss="4.91" rerouteNo="0" devices="tripinfo_S_thru_f1.8" vType="car" speedFactor="1.04" vaporized=""/>
    <tripinfo id="S_left_f.4" depart="96.00" departLane="S_left_0" departPos="5.10" departSpeed="0.00" departDelay="0.00" arrival="142.00" arrivalLane="center_to_E_0" arrivalPos="486.40" arrivalSpeed="13.69" duration="46.00" routeLength="532.27" waitingTime="0.00" waitingCount="0" stopTime="0.00" timeLoss="5.92" rerouteNo="0" devices="tripinfo_S_left_f.4" vType="car" speedFactor="1.00" vaporized=""/>
    <tripinfo id="N_thru_f1.3" depart="108.00" departLane="N_thru_1_0" departPos="5.10" departSpeed="0.00" departDelay="0.00" arrival="157.00" arrivalLane="center_to_N_0" arrivalPos="486.40" arrivalSpeed="12.03" duration="49.00" routeLength="545.78" waitingTime="0.00" waitingCount="0" stopTime="0.00" timeLoss="4.90" rerouteNo="0" devices="tripinfo_N_thru_f1.3" vType="car" speedFactor="0.90" vaporized=""/>
    <tripinfo id="N_thru_f2.3" depart="108.00" departLane="N_thru_2_0" departPos="5.10" departSpeed="0.00" departDelay="0.00" arrival="158.00" arrivalLane="center_to_N_1" arrivalPos="486.40" arrivalSpeed="11.90" duration="50.00" routeLength="545.12" waitingTime="0.00" waitingCount="0" stopTime="0.00" timeLoss="5.14" rerouteNo="0" devices="tripinfo_N_thru_f2.3" vType="car" speedFactor="0.88" vaporized=""/>
    <tripinfo id="S_thru_f1.9" depart="108.00" departLane="S_thru_1_0" departPos="5.10" departSpeed="0.00" departDelay="0.00" arrival="159.00" arrivalLane="center_to_S_0" arrivalPos="486.40" arrivalSpeed="10.88" duration="51.00" routeLength="545.78" waitingTime="0.00" waitingCount="0" stopTime="0.00" timeLoss="4.68" rerouteNo="0" devices="tripinfo_S_thru_f1.9" vType="car" speedFactor="0.85" vaporized=""/>
    <tripinfo id="S_thru_f2.9" depart="108.00" departLane="S_thru_2_0" departPos="5.10" departSpeed="0.00" departDelay="0.00" arrival="159.00" arrivalLane="center_to_S_1" arrivalPos="486.40" arrivalSpeed="11.33" duration="51.00" routeLength="545.12" waitingTime="0.00" waitingCount="0" stopTime="0.00" timeLoss="5.05" rerouteNo="0" devices="tripinfo_S_thru_f2.9" vType="car" speedFactor="0.85" vaporized=""/>
    <tripinfo id="S_left_f.5" depart="120.00" departLane="S_left_0" departPos="5.10" departSpeed="0.00" departDelay="0.00" arrival="161.00" arrivalLane="center_to_E_0" arrivalPos="486.40" arrivalSpeed="14.62" duration="41.00" routeLength="532.27" waitingTime="0.00" waitingCount="0" stopTime="0.00" timeLoss="5.94" rerouteNo="0" devices="tripinfo_S_left_f.5" vType="car" speedFactor="1.14" vaporized=""/>
    <tripinfo id="S_thru_f1.10" depart="120.00" departLane="S_thru_1_0" departPos="5.10" departSpeed="0.00" departDelay="0.00" arrival="165.00" arrivalLane="center_to_S_0" arrivalPos="486.40" arrivalSpeed="13.50" duration="45.00" routeLength="545.78" waitingTime="0.00" waitingCount="0" stopTime="0.00" timeLoss="5.10" rerouteNo="0" devices="tripinfo_S_thru_f1.10" vType="car" speedFactor="1.00" vaporized=""/>
    <tripinfo id="S_thru_f2.10" depart="120.00" departLane="S_thru_2_0" departPos="5.10" departSpeed="0.00" departDelay="0.00" arrival="170.00" arrivalLane="center_to_S_0" arrivalPos="486.40" arrivalSpeed="11.93" duration="50.00" routeLength="545.12" waitingTime="0.00" waitingCount="0" stopTime="0.00" timeLoss="5.50" rerouteNo="0" devices="tripinfo_S_thru_f2.10" vType="car" speedFactor="0.90" vaporized=""/>
    <tripinfo id="S_thru_f1.11" depart="132.00" departLane="S_thru_1_0" departPos="5.10" departSpeed="0.00" departDelay="0.00" arrival="176.00" arrivalLane="center_to_S_0" arrivalPos="486.40" arrivalSpeed="13.27" duration="44.00" routeLength="545.78" waitingTime="0.00" waitingCount="0" stopTime="0.00" timeLoss="4.85" rerouteNo="0" devices="tripinfo_S_thru_f1.11" vType="car" speedFactor="1.02" vaporized=""/>
    <tripinfo id="S_thru_f2.11" depart="132.00" departLane="S_thru_2_0" departPos="5.10" departSpeed="0.00" departDelay="0.00" arrival="178.00" arrivalLane="center_to_S_1" arrivalPos="486.40" arrivalSpeed="12.25" duration="46.00" routeLength="545.12" waitingTime="0.00" waitingCount="0" stopTime="0.00" timeLoss="4.82" rerouteNo="0" devices="tripinfo_S_thru_f2.11" vType="car" speedFactor="0.97" vaporized=""/>
    <tripinfo id="N_thru_f2.4" depart="144.00" departLane="N_thru_2_0" departPos="5.10" departSpeed="0.00" departDelay="0.00" arrival="184.00" arrivalLane="center_to_N_1" arrivalPos="486.40" arrivalSpeed="14.87" duration="40.00" routeLength="545.12" waitingTime="0.00" waitingCount="0" stopTime="0.00" timeLoss="4.88" rerouteNo="0" devices="tripinfo_N_thru_f2.4" vType="car" speedFactor="1.12" vaporized=""/>
    <tripinfo id="N_thru_f1.4" depart="144.00" departLane="N_thru_1_0" departPos="5.10" departSpeed="0.00" departDelay="0.00" arrival="185.00" arrivalLane="center_to_N_0" arrivalPos="486.40" arrivalSpeed="14.30" duration="41.00" routeLength="545.78" waitingTime="0.00" waitingCount="0" stopTime="0.00" timeLoss="4.37" rerouteNo="0" devices="tripinfo_N_thru_f1.4" vType="car" speedFactor="1.08" vaporized=""/>
    <tripinfo id="N_left_f.2" depart="144.00" departLane="N_left_0" departPos="5.10" departSpeed="0.00" departDelay="0.00" arrival="187.00" arrivalLane="center_to_W_0" arrivalPos="486.40" arrivalSpeed="13.81" duration="43.00" routeLength="532.27" waitingTime="0.00" waitingCount="0" stopTime="0.00" timeLoss="4.80" rerouteNo="0" devices="tripinfo_N_left_f.2" vType="car" speedFactor="1.04" vaporized=""/>
    <tripinfo id="S_thru_f1.12" depart="144.00" departLane="S_thru_1_0" departPos="5.10" departSpeed="0.00" departDelay="0.00" arrival="188.00" arrivalLane="center_to_S_0" arrivalPos="486.40" arrivalSpeed="12.95" duration="44.00" routeLength="545.78" waitingTime="0.00" waitingCount="0" stopTime="0.00" timeLoss="4.57" rerouteNo="0" devices="tripinfo_S_thru_f1.12" vType="car" speedFactor="1.02" vaporized=""/>
    <tripinfo id="E_left_f.2" depart="144.00" departLane="E_left_0" departPos="5.10" departSpeed="0.00" departDelay="0.00" arrival="188.00" arrivalLane="center_to_N_0" arrivalPos="486.40" arrivalSpeed="14.16" duration="44.00" routeLength="537.05" waitingTime="0.00" waitingCount="0" stopTime="0.00" timeLoss="5.30" rerouteNo="0" devices="tripinfo_E_left_f.2" vType="car" speedFactor="1.02" vaporized=""/>
    <tripinfo id="S_thru_f2.12" depart="144.00" departLane="S_thru_2_0" departPos="5.10" departSpeed="0.00" departDelay="0.00" arrival="189.00" arrivalLane="center_to_S_1" arrivalPos="486.40" arrivalSpeed="13.69" duration="45.00" routeLength="545.12" waitingTime="0.00" waitingCount="0" stopTime="0.00" timeLoss="4.92" rerouteNo="0" devices="tripinfo_S_thru_f2.12" vType="car" speedFactor="0.99" vaporized=""/>
    <tripinfo id="S_left_f.6" depart="144.00" departLane="S_left_0" departPos="5.10" departSpeed="0.00" departDelay="0.00" arrival="189.00" arrivalLane="center_to_E_0" arrivalPos="486.40" arrivalSpeed="13.41" duration="45.00" routeLength="532.27" waitingTime="0.00" waitingCount="0" stopTime="0.00" timeLoss="5.84" rerouteNo="0" devices="tripinfo_S_left_f.6" vType="car" speedFactor="1.02" vaporized=""/>
    <tripinfo id="W_left_f.2" depart="144.00" departLane="W_left_0" departPos="5.10" departSpeed="0.00" departDelay="0.00" arrival="190.00" arrivalLane="center_to_S_2" arrivalPos="486.40" arrivalSpeed="12.91" duration="46.00" routeLength="537.05" waitingTime="0.00" waitingCount="0" stopTime="0.00" timeLoss="5.49" rerouteNo="0" devices="tripinfo_W_left_f.2" vType="car" speedFactor="0.97" vaporized=""/>
    <tripinfo id="S_thru_f2.13" depart="156.00" departLane="S_thru_2_0" departPos="5.10" departSpeed="0.00" departDelay="0.00" arrival="199.00" arrivalLane="center_to_S_0" arrivalPos="486.40" arrivalSpeed="14.29" duration="43.00" routeLength="545.12" waitingTime="0.00" waitingCount="0" stopTime="0.00" timeLoss="5.25" rerouteNo="0" devices="tripinfo_S_thru_f2.13" vType="car" speedFactor="1.06" vaporized=""/>
    <tripinfo id="S_thru_f1.13" depart="156.00" departLane="S_thru_1_0" departPos="5.10" departSpeed="0.00" departDelay="0.00" arrival="204.00" arrivalLane="center_to_S_0" arrivalPos="486.40" arrivalSpeed="11.96" duration="48.00" routeLength="545.78" waitingTime="0.00" waitingCount="0" stopTime="0.00" timeLoss="5.49" rerouteNo="0" devices="tripinfo_S_thru_f1.13" vType="car" speedFactor="0.94" vaporized=""/>
    <tripinfo id="S_left_f.7" depart="168.00" departLane="S_left_0" departPos="5.10" departSpeed="0.00" departDelay="0.00" arrival="212.00" arrivalLane="center_to_E_0" arrivalPos="486.40" arrivalSpeed="13.83" duration="44.00" routeLength="532.27" waitingTime="0.00" waitingCount="0" stopTime="0.00" timeLoss="5.55" rerouteNo="0" devices="tripinfo_S_left_f.7" vType="car" speedFactor="1.03" vaporized=""/>
    <tripinfo id="S_thru_f2.14" depart="168.00" departLane="S_thru_2_0" departPos="5.10" departSpeed="0.00" departDelay="0.00" arrival="213.00" arrivalLane="center_to_S_1" arrivalPos="486.40" arrivalSpeed="13.52" duration="45.00" routeLength="545.12" waitingTime="0.00" waitingCount="0" stopTime="0.00" timeLoss="4.83" rerouteNo="0" devices="tripinfo_S_thru_f2.14" vType="car" speedFactor="0.98" vaporized=""/>
    <tripinfo id="S_thru_f1.14" depart="168.00" departLane="S_thru_1_0" departPos="5.10" departSpeed="0.00" departDelay="0.00" arrival="214.00" arrivalLane="center_to_S_0" arrivalPos="486.40" arrivalSpeed="12.72" duration="46.00" routeLength="545.78" waitingTime="0.00" waitingCount="0" stopTime="0.00" timeLoss="4.46" rerouteNo="0" devices="tripinfo_S_thru_f1.14" vType="car" speedFactor="0.96" vaporized=""/>
    <tripinfo id="S_thru_f1.15" depart="180.00" departLane="S_thru_1_0" departPos="5.10" departSpeed="0.00" departDelay="0.00" arrival="221.00" arrivalLane="center_to_S_0" arrivalPos="486.40" arrivalSpeed="14.81" duration="41.00" routeLength="545.78" waitingTime="0.00" waitingCount="0" stopTime="0.00" timeLoss="4.39" rerouteNo="0" devices="tripinfo_S_thru_f1.15" vType="car" speedFactor="1.09" vaporized=""/>
    <tripinfo id="S_thru_f2.15" depart="180.00" departLane="S_thru_2_0" departPos="5.10" departSpeed="0.00" departDelay="0.00" arrival="223.00" arrivalLane="center_to_S_1" arrivalPos="486.40" arrivalSpeed="13.32" duration="43.00" routeLength="545.12" waitingTime="0.00" waitingCount="0" stopTime="0.00" timeLoss="4.53" rerouteNo="0" devices="tripinfo_S_thru_f2.15" vType="car" speedFactor="1.03" vaporized=""/>
    <tripinfo id="N_thru_f2.5" depart="180.00" departLane="N_thru_2_0" departPos="5.10" departSpeed="0.00" departDelay="0.00" arrival="224.00" arrivalLane="center_to_N_1" arrivalPos="486.40" arrivalSpeed="13.40" duration="44.00" routeLength="545.12" waitingTime="0.00" waitingCount="0" stopTime="0.00" timeLoss="4.84" rerouteNo="0" devices="tripinfo_N_thru_f2.5" vType="car" speedFactor="1.01" vaporized=""/>
    <tripinfo id="N_thru_f1.5" depart="180.00" departLane="N_thru_1_0" departPos="5.10" departSpeed="0.00" departDelay="0.00" arrival="225.00" arrivalLane="center_to_N_0" arrivalPos="486.40" arrivalSpeed="12.89" duration="45.00" routeLength="545.78" waitingTime="0.00" waitingCount="0" stopTime="0.00" timeLoss="4.68" rerouteNo="0" devices="tripinfo_N_thru_f1.5" vType="car" speedFactor="0.98" vaporized=""/>
    <tripinfo id="S_left_f.8" depart="192.00" departLane="S_left_0" departPos="5.10" departSpeed="0.00" departDelay="0.00" arrival="235.00" arrivalLane="center_to_E_0" arrivalPos="486.40" arrivalSpeed="13.69" duration="43.00" routeLength="532.27" waitingTime="0.00" waitingCount="0" stopTime="0.00" timeLoss="5.48" rerouteNo="0" devices="tripinfo_S_left_f.8" vType="car" speedFactor="1.04" vaporized=""/>
    <tripinfo id="S_thru_f1.16" depart="192.00" departLane="S_thru_1_0" departPos="5.10" departSpeed="0.00" departDelay="0.00" arrival="237.00" arrivalLane="center_to_S_0" arrivalPos="486.40" arrivalSpeed="12.82" duration="45.00" routeLength="545.78" waitingTime="0.00" waitingCount="0" stopTime="0.00" timeLoss="4.45" rerouteNo="0" devices="tripinfo_S_thru_f1.16" vType="car" speedFactor="0.98" vaporized=""/>
    <tripinfo id="S_thru_f2.16" depart="192.00" departLane="S_thru_2_0" departPos="5.10" departSpeed="0.00" departDelay="0.00" arrival="237.00" arrivalLane="center_to_S_1" arrivalPos="486.40" arrivalSpeed="12.79" duration="45.00" routeLength="545.12" waitingTime="0.00" waitingCount="0" stopTime="0.00" timeLoss="5.24" rerouteNo="0" devices="tripinfo_S_thru_f2.16" vType="car" speedFactor="1.00" vaporized=""/>
    <tripinfo id="S_thru_f1.17" depart="204.00" departLane="S_thru_1_0" departPos="5.10" departSpeed="0.00" departDelay="0.00" arrival="248.00" arrivalLane="center_to_S_0" arrivalPos="486.40" arrivalSpeed="12.84" duration="44.00" routeLength="545.78" waitingTime="0.00" waitingCount="0" stopTime="0.00" timeLoss="4.98" rerouteNo="0" devices="tripinfo_S_thru_f1.17" vType="car" speedFactor="1.01" vaporized=""/>
    <tripinfo id="S_thru_f2.17" depart="204.00" departLane="S_thru_2_0" departPos="5.10" departSpeed="0.00" departDelay="0.00" arrival="248.00" arrivalLane="center_to_S_1" arrivalPos="486.40" arrivalSpeed="13.42" duration="44.00" routeLength="545.12" waitingTime="0.00" waitingCount="0" stopTime="0.00" timeLoss="5.21" rerouteNo="0" devices="tripinfo_S_thru_f2.17" vType="car" speedFactor="1.02" vaporized=""/>
    <tripinfo id="N_left_f.3" depart="216.00" departLane="N_left_0" departPos="5.10" departSpeed="0.00" departDelay="0.00" arrival="257.00" arrivalLane="center_to_W_0" arrivalPos="486.40" arrivalSpeed="15.49" duration="41.00" routeLength="532.27" waitingTime="0.00" waitingCount="0" stopTime="0.00" timeLoss="5.82" rerouteNo="0" devices="tripinfo_N_left_f.3" vType="car" speedFactor="1.12" vaporized=""/>
    <tripinfo id="S_left_f.9" depart="216.00" departLane="S_left_0" departPos="5.10" departSpeed="0.00" departDelay="0.00" arrival="257.00" arrivalLane="center_to_E_0" arrivalPos="486.40" arrivalSpeed="14.59" duration="41.00" routeLength="532.27" waitingTime="0.00" waitingCount="0" stopTime="0.00" timeLoss="5.26" rerouteNo="0" devices="tripinfo_S_left_f.9" vType="car" speedFactor="1.10" vaporized=""/>
    <tripinfo id="E_left_f.3" depart="216.00" departLane="E_left_0" departPos="5.10" departSpeed="0.00" departDelay="0.00" arrival="259.00" arrivalLane="center_to_N_1" arrivalPos="486.40" arrivalSpeed="14.06" duration="43.00" routeLength="537.05" waitingTime="0.00" waitingCount="0" stopTime="0.00" timeLoss="5.26" rerouteNo="0" devices="tripinfo_E_left_f.3" vType="car" speedFactor="1.06" vaporized=""/>
    <tripinfo id="N_thru_f1.6" depart="216.00" departLane="N_thru_1_0" departPos="5.10" departSpeed="0.00" departDelay="0.00" arrival="260.00" arrivalLane="center_to_N_0" arrivalPos="486.40" arrivalSpeed="14.03" duration="44.00" routeLength="545.78" waitingTime="0.00" waitingCount="0" stopTime="0.00" timeLoss="4.58" rerouteNo="0" devices="tripinfo_N_thru_f1.6" vType="car" speedFactor="1.02" vaporized=""/>