<?xml version="1.0" encoding="UTF-8"?>

<!-- generated on 2026-03-29T19:04:51.355827-05:00 by Eclipse SUMO sumo 1.25.0
<sumoConfiguration xmlns:xsi="http://www.w3.org/2001/XMLSchema-instance" xsi:noNamespaceSchemaLocation="http://sumo.dlr.de/xsd/sumoConfiguration.xsd">

    <input>
        <net-file value="/home/gribel/Capstone/sumo/network/intersection.net.xml"/>
        <route-files value="/home/gribel/Capstone/sumo/demand/balanced.rou.xml"/>
    </input>

    <output>
        <tripinfo-output value="/home/gribel/Capstone/sumo/config/tripinfo.xml"/>
        <tripinfo-output.write-unfinished value="true"/>
    </output>

    <time>
        <step-length value="1.0"/>
    </time>

    <processing>
        <no-internal-links value="false"/>
        <time-to-teleport value="300"/>
        <max-depart-delay value="60"/>
    </processing>

    <report>
        <no-step-log value="true"/>
    </report>

    <traci_server>
        <remote-port value="8813"/>
    </traci_server>

    <gui_only>
        <quit-on-end value="true"/>
    </gui_only>

</sumoConfiguration>
-->

<tripinfos xmlns:xsi="http://www.w3.org/2001/XMLSchema-instance" xsi:noNamespaceSchemaLocation="http://sumo.dlr.de/xsd/tripinfo_file.xsd">
    <tripinfo id="E_left_f.0" depart="0.00" departLane="E_left_0" departPos="5.10" departSpeed="0.00" departDelay="0.00" arrival="42.00" arrivalLane="center_to_N_1" arrivalPos="486.40" arrivalSpeed="14.44" duration="42.00" routeLength="537.05" waitingTime="0.00" waitingCount="0" stopTime="0.00" timeLoss="5.33" rerouteNo="0" devices="tripinfo_E_left_f.0" vType="car" speedFactor="1.09" vaporized=""/>
    <tripinfo id="E_thru_f1.0" depart="0.00" departLane="E_thru_1_0" departPos="5.10" departSpeed="0.00" departDelay="0.00" arrival="43.00" arrivalLane="center_to_E_0" arrivalPos="486.40" arrivalSpeed="14.02" duration="43.00" routeLength="545.12" waitingTime="0.00" waitingCount="0" stopTime="0.00" timeLoss="4.83" rerouteNo="0" devices="tripinfo_E_thru_f1.0" vType="car" speedFactor="1.03" vaporized=""/>
    <tripinfo id="W_thru_f1.0" depart="0.00" departLane="W_thru_1_0" departPos="5.10" departSpeed="0.00" departDelay="0.00" arrival="43.00" arrivalLane="center_to_W_0" arrivalPos="486.40" arrivalSpeed="13.71" duration="43.00" routeLength="545.12" waitingTime="0.00" waitingCount="0" stopTime="0.00" timeLoss="4.74" rerouteNo="0" devices="tripinfo_W_thru_f1.0" vType="car" speedFactor="1.05" vaporized=""/>
    <tripinfo id="W_left_f.0" depart="0.00" departLane="W_left_0" departPos="5.10" departSpeed="0.00" departDelay="0.00" arrival="44.00" arrivalLane="center_to_S_0" arrivalPos="486.40" arrivalSpeed="13.83" duration="44.00" routeLength="537.05" waitingTime="0.00" waitingCount="0" stopTime="0.00" timeLoss="5.12" rerouteNo="0" devices="tripinfo_W_left_f.0" vType="car" speedFactor="1.03" vaporized=""/>
    <tripinfo id="S_thru_f2.0" depart="0.00" departLane="S_thru_2_0" departPos="5.10" departSpeed="0.00" departDelay="0.00" arrival="47.00" arrivalLane="center_to_S_0" arrivalPos="486.40" arrivalSpeed="14.03" duration="47.00" routeLength="545.12" waitingTime="1.00" waitingCount="1" stopTime="0.00" timeLoss="10.55" rerouteNo="0" devices="tripinfo_S_thru_f2.0" vType="car" speedFactor="1.08" vaporized=""/>
    <tripinfo id="N_thru_f1.0" depart="0.00" departLane="N_thru_1_0" departPos="5.10" departSpeed="0.00" departDelay="0.00" arrival="48.00" arrivalLane="center_to_N_0" arrivalPos="486.40" arrivalSpeed="14.26" duration="48.00" routeLength="545.78" waitingTime="1.00" waitingCount="1" stopTime="0.00" timeLoss="10.90" rerouteNo="0" devices="tripinfo_N_thru_f1.0" vType="car" speedFactor="1.06" vaporized=""/>
    <tripinfo id="N_left_f.0" depart="0.00" departLane="N_left_0" departPos="5.10" departSpeed="0.00" departDelay="0.00" arrival="48.00" arrivalLane="center_to_W_0" arrivalPos="486.40" arrivalSpeed="12.47" duration="48.00" routeLength="532.27" waitingTime="0.00" waitingCount="0" stopTime="0.00" timeLoss="5.99" rerouteNo="0" devices="tripinfo_N_left_f.0" vType="car" speedFactor="0.94" vaporized=""/>
    <tripinfo id="S_thru_f1.0" depart="0.00" departLane="S_thru_1_0" departPos="5.10" departSpeed="0.00" departDelay="0.00" arrival="50.00" arrivalLane="center_to_S_0" arrivalPos="486.40" arrivalSpeed="13.85" duration="50.00" routeLength="545.78" waitingTime="1.00" waitingCount="1" stopTime="0.00" timeLoss="10.74" rerouteNo="0" devices="tripinfo_S_thru_f1.0" vType="car" speedFactor="1.01" vaporized=""/>
    <tripinfo id="W_thru_f2.0" depart="0.00" departLane="W_thru_2_0" departPos="5.10" departSpeed="0.00" departDelay="0.00" arrival="50.00" arrivalLane="center_to_W_1" arrivalPos="486.40" arrivalSpeed="11.91" duration="50.00" routeLength="544.90" waitingTime="0.00" waitingCount="0" stopTime="0.00" timeLoss="5.17" rerouteNo="0" devices="tripinfo_W_thru_f2.0" vType="car" speedFactor="0.89" vaporized=""/>
    <tripinfo id="S_left_f.0" depart="0.00" departLane="S_left_0" departPos="5.10" departSpeed="0.00" departDelay="0.00" arrival="51.00" arrivalLane="center_to_E_0" arrivalPos="486.40" arrivalSpeed="10.87" duration="51.00" routeLength="532.27" waitingTime="0.00" waitingCount="0" stopTime="0.00" timeLoss="5.34" rerouteNo="0" devices="tripinfo_S_left_f.0" vType="car" speedFactor="0.86" vaporized=""/>
    <tripinfo id="N_thru_f2.0" depart="0.00" departLane="N_thru_2_0" departPos="5.10" departSpeed="0.00" departDelay="0.00" arrival="53.00" arrivalLane="center_to_N_0" arrivalPos="486.40" arrivalSpeed="12.81" duration="53.00" routeLength="545.12" waitingTime="1.00" waitingCount="1" stopTime="0.00" timeLoss="10.33" rerouteNo="0" devices="tripinfo_N_thru_f2.0" vType="car" speedFactor="0.94" vaporized=""/>
    <tripinfo id="E_thru_f2.0" depart="0.00" departLane="E_thru_2_0" departPos="5.10" departSpeed="0.00" departDelay="0.00" arrival="53.00" arrivalLane="center_to_E_1" arrivalPos="486.40" arrivalSpeed="11.34" duration="53.00" routeLength="544.90" waitingTime="0.00" waitingCount="0" stopTime="0.00" timeLoss="5.09" rerouteNo="0" devices="tripinfo_E_thru_f2.0" vType="car" speedFactor="0.83" vaporized=""/>
    <tripinfo id="N_thru_f2.1" depart="24.00" departLane="N_thru_2_0" departPos="5.10" departSpeed="0.00" departDelay="0.00" arrival="64.00" arrivalLane="center_to_N_0" arrivalPos="486.40" arrivalSpeed="14.32" duration="40.00" routeLength="545.12" waitingTime="0.00" waitingCount="0" stopTime="0.00" timeLoss="4.56" rerouteNo="0" devices="tripinfo_N_thru_f2.1" vType="car" speedFactor="1.12" vaporized=""/>
    <tripinfo id="N_thru_f1.1" depart="24.00" departLane="N_thru_1_0" departPos="5.10" departSpeed="0.00" departDelay="0.00" arrival="67.00" arrivalLane="center_to_N_0" arrivalPos="486.40" arrivalSpeed="13.59" duration="43.00" routeLength="545.78" waitingTime="0.00" waitingCount="0" stopTime="0.00" timeLoss="5.07" rerouteNo="0" devices="tripinfo_N_thru_f1.1" vType="car" speedFactor="1.05" vaporized=""/>
    <tripinfo id="S_thru_f1.1" depart="24.00" departLane="S_thru_1_0" departPos="5.10" departSpeed="0.00" departDelay="0.00" arrival="68.00" arrivalLane="center_to_S_0" arrivalPos="486.40" arrivalSpeed="13.31" duration="44.00" routeLength="545.78" waitingTime="0.00" waitingCount="0" stopTime="0.00" timeLoss="4.26" rerouteNo="0" devices="tripinfo_S_thru_f1.1" vType="car" speedFactor="0.99" vaporized=""/>
    <tripinfo id="S_thru_f2.1" depart="24.00" departLane="S_thru_2_0" departPos="5.10" departSpeed="0.00" departDelay="0.00" arrival="71.00" arrivalLane="center_to_S_0" arrivalPos="486.40" arrivalSpeed="12.84" duration="47.00" routeLength="545.12" waitingTime="0.00" waitingCount="0" stopTime="0.00" timeLoss="4.53" rerouteNo="0" devices="tripinfo_S_thru_f2.1" vType="car" speedFactor="0.93" vaporized=""/>
    <tripinfo id="N_left_f.1" depart="36.00" departLane="N_left_0" departPos="5.10" departSpeed="0.00" departDelay="0.00" arrival="80.00" arrivalLane="center_to_W_0" arrivalPos="486.40" arrivalSpeed="13.35" duration="44.00" routeLength="532.27" waitingTime="0.00" waitingCount="0" stopTime="0.00" timeLoss="5.59" rerouteNo="0" devices="tripinfo_N_left_f.1" vType="car" speedFactor="1.02" vaporized=""/>
    <tripinfo id="S_left_f.1" depart="36.00" departLane="S_left_0" departPos="5.10" departSpeed="0.00" departDelay="0.00" arrival="81.00" arrivalLane="center_to_E_0" arrivalPos="486.40" arrivalSpeed="13.99" duration="45.00" routeLength="532.27" waitingTime="0.00" waitingCount="0" stopTime="0.00" timeLoss="5.54" rerouteNo="0" devices="tripinfo_S_left_f.1" vType="car" speedFactor="1.01" vaporized=""/>
    <tripinfo id="E_left_f.1" depart="36.00" departLane="E_left_0" departPos="5.10" departSpeed="0.00" departDelay="0.00" arrival="82.00" arrivalLane="center_to_N_0" arrivalPos="486.40" arrivalSpeed="12.38" duration="46.00" routeLength="537.05" waitingTime="0.00" waitingCount="0" stopTime="0.00" timeLoss="5.61" rerouteNo="0" devices="tripinfo_E_left_f.1" vType="car" speedFactor="0.97" vaporized=""/>
    <tripinfo id="W_left_f.1" depart="36.00" departLane="W_left_0" departPos="5.10" departSpeed="0.00" departDelay="0.00" arrival="86.00" arrivalLane="center_to_S_0" arrivalPos="486.40" arrivalSpeed="11.92" duration="50.00" routeLength="537.05" waitingTime="0.00" waitingCount="0" stopTime="0.00" timeLoss="5.65" rerouteNo="0" devices="tripinfo_W_left_f.1" vType="car" speedFactor="0.89" vaporized=""/>
    <tripinfo id="S_thru_f2.2" depart="48.00" departLane="S_thru_2_0" departPos="5.10" departSpeed="0.00" departDelay="0.00" arrival="95.00" arrivalLane="center_to_S_0" arrivalPos="486.40" arrivalSpeed="13.17" duration="47.00" routeLength="545.12" waitingTime="0.00" waitingCount="0" stopTime="0.00" timeLoss="4.83" rerouteNo="0" devices="tripinfo_S_thru_f2.2" vType="car" speedFactor="0.95" vaporized=""/>
    <tripinfo id="S_thru_f1.2" depart="48.00" departLane="S_thru_1_0" departPos="5.10" departSpeed="0.00" departDelay="0.00" arrival="97.00" arrivalLane="center_to_S_0" arrivalPos="486.40" arrivalSpeed="11.75" duration="49.00" routeLength="545.78" waitingTime="0.00" waitingCount="0" stopTime="0.00" timeLoss="5.44" rerouteNo="0" devices="tripinfo_S_thru_f1.2" vType="car" speedFactor="0.92" vaporized=""/>
    <tripinfo id="N_thru_f2.2" depart="48.00" departLane="N_thru_2_0" departPos="5.10" departSpeed="0.00" departDelay="0.00" arrival="98.00" arrivalLane="center_to_N_0" arrivalPos="486.40" arrivalSpeed="11.51" duration="50.00" routeLength="545.12" waitingTime="0.00" waitingCount="0" stopTime="0.00" timeLoss="4.78" rerouteNo="0" devices="tripinfo_N_thru_f2.2" vType="car" speedFactor="0.87" vaporized=""/>
    <tripinfo id="N_thru_f1.2" depart="48.00" departLane="N_thru_1_0" departPos="5.10" departSpeed="0.00" departDelay="0.00" arrival="101.00" arrivalLane="center_to_N_0" arrivalPos="486.40" arrivalSpeed="11.12" duration="53.00" routeLength="545.78" waitingTime="0.00" waitingCount="0" stopTime="0.00" timeLoss="4.86" rerouteNo="0" devices="tripinfo_N_thru_f1.2" vType="car" speedFactor="0.83" vaporized=""/>
    <tripinfo id="N_thru_f2.3" depart="72.00" departLane="N_thru_2_0" departPos="5.10" departSpeed="0.00" departDelay="0.00" arrival="111.00" arrivalLane="center_to_N_0" arrivalPos="486.40" arrivalSpeed="15.37" duration="39.00" routeLength="545.12" waitingTime="0.00" waitingCount="0" stopTime="0.00" timeLoss="5.38" rerouteNo="0" devices="tripinfo_N_thru_f2.3" vType="car" speedFactor="1.17" vaporized=""/>
    <tripinfo id="E_left_f.2" depart="72.00" departLane="E_left_0" departPos="5.10" departSpeed="0.00" departDelay="0.00" arrival="114.00" arrivalLane="center_to_N_2" arrivalPos="486.40" arrivalSpeed="14.11" duration="42.00" routeLength="537.05" waitingTime="0.00" waitingCount="0" stopTime="0.00" timeLoss="5.18" rerouteNo="0" devices="tripinfo_E_left_f.2" vType="car" speedFactor="1.09" vaporized=""/>
    <tripinfo id="N_thru_f1.3" depart="72.00" departLane="N_thru_1_0" departPos="5.10" departSpeed="0.00" departDelay="0.00" arrival="116.00" arrivalLane="center_to_N_0" arrivalPos="486.40" arrivalSpeed="13.74" duration="44.00" routeLength="545.78" waitingTime="0.00" waitingCount="0" stopTime="0.00" timeLoss="4.55" rerouteNo="0" devices="tripinfo_N_thru_f1.3" vType="car" speedFactor="1.01" vaporized=""/>
    <tripinfo id="S_thru_f2.3" depart="72.00" departLane="S_thru_2_0" departPos="5.10" departSpeed="0.00" departDelay="0.00" arrival="116.00" arrivalLane="center_to_S_1" arrivalPos="486.40" arrivalSpeed="13.11" duration="44.00" routeLength="545.12" waitingTime="0.00" waitingCount="0" stopTime="0.00" timeLoss="4.95" rerouteNo="0" devices="tripinfo_S_thru_f2.3" vType="car" speedFactor="1.02" vaporized=""/>
    <tripinfo id="N_left_f.2" depart="72.00" departLane="N_left_0" departPos="5.10" departSpeed="0.00" departDelay="0.00" arrival="116.00" arrivalLane="center_to_W_0" arrivalPos="486.40" arrivalSpeed="13.76" duration="44.00" routeLength="532.27" waitingTime="0.00" waitingCount="0" stopTime="0.00" timeLoss="5.28" rerouteNo="0" devices="tripinfo_N_left_f.2" vType="car" speedFactor="1.03" vaporized=""/>
    <tripinfo id="W_left_f.2" depart="72.00" departLane="W_left_0" departPos="5.10" departSpeed="0.00" departDelay="0.00" arrival="116.00" arrivalLane="center_to_S_2" arrivalPos="486.40" arrivalSpeed="13.19" duration="44.00" routeLength="537.05" waitingTime="0.00" waitingCount="0" stopTime="0.00" timeLoss="5.53" rerouteNo="0" devices="tripinfo_W_left_f.2" vType="car" speedFactor="1.04" vaporized=""/>
    <tripinfo id="S_thru_f1.3" depart="72.00" departLane="S_thru_1_0" departPos="5.10" departSpeed="0.00" departDelay="0.00" arrival="117.00" arrivalLane="center_to_S_0" arrivalPos="486.40" arrivalSpeed="13.02" duration="45.00" routeLength="545.78" waitingTime="0.00" waitingCount="0" stopTime="0.00" timeLoss="5.13" rerouteNo="0" devices="tripinfo_S_thru_f1.3" vType="car" speedFactor="0.99" vaporized=""/>
    <tripinfo id="S_left_f.2" depart="72.00" departLane="S_left_0" departPos="5.10" departSpeed="0.00" departDelay="0.00" arrival="119.00" arrivalLane="center_to_E_0" arrivalPos="486.40" arrivalSpeed="12.21" duration="47.00" routeLength="532.27" waitingTime="0.00" waitingCount="0" stopTime="0.00" timeLoss="5.82" rerouteNo="0" devices="tripinfo_S_left_f.2" vType="car" speedFactor="0.96" vaporized=""/>
    <tripinfo id="N_thru_f2.4" depart="96.00" departLane="N_thru_2_0" departPos="5.10" departSpeed="0.00" departDelay="0.00" arrival="137.00" arrivalLane="center_to_N_0" arrivalPos="486.40" arrivalSpeed="15.08" duration="41.00" routeLength="545.12" waitingTime="0.00" waitingCount="0" stopTime="0.00" timeLoss="4.75" rerouteNo="0" devices="tripinfo_N_thru_f2.4" vType="car" speedFactor="1.09" vaporized=""/>
    <tripinfo id="N_thru_f1.4" depart="96.00" departLane="N_thru_1_0" departPos="5.10" departSpeed="0.00" departDelay="0.00" arrival="139.00" arrivalLane="center_to_N_0" arrivalPos="486.40" arrivalSpeed="13.93" duration="43.00" routeLength="545.78" waitingTime="0.00" waitingCount="0" stopTime="0.00" timeLoss="4.67" rerouteNo="0" devices="tripinfo_N_thru_f1.4" vType="car" speedFactor="1.04" vaporized=""/>
    <tripinfo id="S_thru_f1.4" depart="96.00" departLane="S_thru_1_0" departPos="5.10" departSpeed="0.00" departDelay="0.00" arrival="141.00" arrivalLane="center_to_S_0" arrivalPos="486.40" arrivalSpeed="13.59" duration="45.00" routeLength="545.78" waitingTime="0.00" waitingCount="0" stopTime="0.00" timeLoss="5.14" rerouteNo="0" devices="tripinfo_S_thru_f1.4" vType="car" speedFactor="1.00" vaporized=""/>
    <tripinfo id="S_thru_f2.4" depart="96.00" departLane="S_thru_2_0" departPos="5.10" departSpeed="0.00" departDelay="0.00" arrival="145.00" arrivalLane="center_to_S_0" arrivalPos="486.40" arrivalSpeed="12.34" duration="49.00" routeLength="545.12" waitingTime="0.00" waitingCount="0" stopTime="0.00" timeLoss="4.53" rerouteNo="0" devices="tripinfo_S_thru_f2.4" vType="car" speedFactor="0.90" vaporized=""/>
    <tripinfo id="S_left_f.3" depart="108.00" departLane="S_left_0" departPos="5.10" departSpeed="0.00" departDelay="0.00" arrival="150.00" arrivalLane="center_to_E_0" arrivalPos="486.40" arrivalSpeed="14.48" duration="42.00" routeLength="532.27" waitingTime="0.00" waitingCount="0" stopTime="0.00" timeLoss="6.02" rerouteNo="0" devices="tripinfo_S_left_f.3" vType="car" speedFactor="1.10" vaporized=""/>
    <tripinfo id="N_left_f.3" depart="108.00" departLane="N_left_0" departPos="5.10" departSpeed="0.00" departDelay="0.00" arrival="152.00" arrivalLane="center_to_W_0" arrivalPos="486.40" arrivalSpeed="13.21" duration="44.00" routeLength="532.27" waitingTime="0.00" waitingCount="0" stopTime="0.00" timeLoss="5.24" rerouteNo="0" devices="tripinfo_N_left_f.3" vType="car" speedFactor="1.02" vaporized=""/>
    <tripinfo id="E_left_f.3" depart="108.00" departLane="E_left_0" departPos="5.10" departSpeed="0.00" departDelay="0.00" arrival="153.00" arrivalLane="center_to_N_0" arrivalPos="486.40" arrivalSpeed="13.75" duration="45.00" routeLength="537.05" waitingTime="0.00" waitingCount="0" stopTime="0.00" timeLoss="5.32" rerouteNo="0" devices="tripinfo_E_left_f.3" vType="car" speedFactor="1.00" vaporized=""/>
    <tripinfo id="W_left_f.3" depart="108.00" departLane="W_left_0" departPos="5.10" departSpeed="0.00" departDelay="0.00" arrival="153.00" arrivalLane="center_to_S_0" arrivalPos="486.40" arrivalSpeed="12.56" duration="45.00" routeLength="537.05" waitingTime="0.00" waitingCount="0" stopTime="0.00" timeLoss="5.49" rerouteNo="0" devices="tripinfo_W_left_f.3" vType="car" speedFactor="1.00" vaporized=""/>
    <tripinfo id="N_thru_f2.5" depart="120.00" departLane="N_thru_2_0" departPos="5.10" departSpeed="0.00" departDelay="0.00" arrival="160.00" arrivalLane="center_to_N_0" arrivalPos="486.40" arrivalSpeed="15.30" duration="40.00" routeLength="545.12" waitingTime="0.00" waitingCount="0" stopTime="0.00" timeLoss="5.46" rerouteNo="0" devices="tripinfo_N_thru_f2.5" vType="car" speedFactor="1.14" vaporized=""/>
    <tripinfo id="S_thru_f1.5" depart="120.00" departLane="S_thru_1_0" departPos="5.10" departSpeed="0.00" departDelay="0.00" arrival="164.00" arrivalLane="center_to_S_0" arrivalPos="486.40" arrivalSpeed="14.02" duration="44.00" routeLength="545.78" waitingTime="0.00" waitingCount="0" stopTime="0.00" timeLoss="5.13" rerouteNo="0" devices="tripinfo_S_thru_f1.5" vType="car" speedFactor="1.02" vaporized=""/>
    <tripinfo id="S_thru_f2.5" depart="120.00" departLane="S_thru_2_0" departPos="5.10" departSpeed="0.00" departDelay="0.00" arrival="166.00" arrivalLane="center_to_S_1" arrivalPos="486.40" arrivalSpeed="13.29" duration="46.00" routeLength="545.12" waitingTime="0.00" waitingCount="0" stopTime="0.00" timeLoss="5.10" rerouteNo="0" devices="tripinfo_S_thru_f2.5" vType="car" speedFactor="0.97" vaporized=""/>
    <tripinfo id="N_thru_f1.5" depart="120.00" departLane="N_thru_1_0" departPos="5.10" departSpeed="0.00" departDelay="0.00" arrival="169.00" arrivalLane="center_to_N_0" arrivalPos="486.40" arrivalSpeed="12.36" duration="49.00" routeLength="545.78" waitingTime="0.00" waitingCount="0" stopTime="0.00" timeLoss="5.07" rerouteNo="0" devices="tripinfo_N_thru_f1.5" vType="car" speedFactor="0.90" vaporized=""/>
    <tripinfo id="S_left_f.4" depart="144.00" departLane="S_left_0" departPos="5.10" departSpeed="0.00" departDelay="0.00" arrival="187.00" arrivalLane="center_to_E_0" arrivalPos="486.40" arrivalSpeed="14.22" duration="43.00" routeLength="532.27" waitingTime="0.00" waitingCount="0" stopTime="0.00" timeLoss="5.86" rerouteNo="0" devices="tripinfo_S_left_f.4" vType="car" speedFactor="1.06" vaporized=""/>
    <tripinfo id="E_left_f.4" depart="144.00" departLane="E_left_0" departPos="5.10" departSpeed="0.00" departDelay="0.00" arrival="190.00" arrivalLane="center_to_N_1" arrivalPos="486.40" arrivalSpeed="13.12" duration="46.00" routeLength="537.05" waitingTime="0.00" waitingCount="0" stopTime="0.00" timeLoss="4.88" rerouteNo="0" devices="tripinfo_E_left_f.4" vType="car" speedFactor="0.96" vaporized=""/>
    <tripinfo id="W_left_f.4" depart="144.00" departLane="W_left_0" departPos="5.10" departSpeed="0.00" departDelay="0.00" arrival="190.00" arrivalLane="center_to_S_1" arrivalPos="486.40" arrivalSpeed="13.61" duration="46.00" routeLength="537.05" waitingTime="0.00" waitingCount="0" stopTime="0.00" timeLoss="5.46" rerouteNo="0" devices="tripinfo_W_left_f.4" vType="car" speedFactor="0.98" vaporized=""/>
    <tripinfo id="N_thru_f1.6" depart="144.00" departLane="N_thru_1_0" departPos="5.10" departSpeed="0.00" departDelay="0.00" arrival="191.00" arrivalLane="center_to_N_0" arrivalPos="486.40" arrivalSpeed="12.36" duration="47.00" routeLength="545.78" waitingTime="0.00" waitingCount="0" stopTime="0.00" timeLoss="5.10" rerouteNo="0" devices="tripinfo_N_thru_f1.6" vType="car" speedFactor="0.94" vaporized=""/>
    <tripinfo id="S_thru_f2.6" depart="144.00" departLane="S_thru_2_0" departPos="5.10" departSpeed="0.00" departDelay="0.00" arrival="192.00" arrivalLane="center_to_S_1" arrivalPos="486.40" arrivalSpeed="11.96" duration="48.00" routeLength="545.12" waitingTime="0.00" waitingCount="0" stopTime="0.00" timeLoss="5.00" rerouteNo="0" devices="tripinfo_S_thru_f2.6" vType="car" speedFactor="0.91" vaporized=""/>
    <tripinfo id="S_thru_f1.6" depart="144.00" departLane="S_thru_1_0" departPos="5.10" departSpeed="0.00" departDelay="0.00" arrival="193.00" arrivalLane="center_to_S_0" arrivalPos="486.40" arrivalSpeed="12.16" duration="49.00" routeLength="545.78" waitingTime="0.00" waitingCount="0" stopTime="0.00" timeLoss="5.24" rerouteNo="0" devices="tripinfo_S_thru_f1.6" vType="car" speedFactor="0.91" vaporized=""/>
    <tripinfo id="N_left_f.4" depart="144.00" departLane="N_left_0" departPos="5.10" departSpeed="0.00" departDelay="0.00" arrival="193.00" arrivalLane="center_to_W_0" arrivalPos="486.40" arrivalSpeed="12.83" duration="49.00" routeLength="532.27" waitingTime="0.00" waitingCount="0" stopTime="0.00" timeLoss="6.69" rerouteNo="0" devices="tripinfo_N_left_f.4" vType="car" speedFactor="0.94" vaporized=""/>
    <tripinfo id="N_thru_f2.6" depart="144.00" departLane="N_thru_2_0" departPos="5.10" departSpeed="0.00" departDelay="0.00" arrival="194.00" arrivalLane="center_to_N_0" arrivalPos="486.40" arrivalSpeed="12.03" duration="50.00" routeLength="545.12" waitingTime="0.00" waitingCount="0" stopTime="0.00" timeLoss="5.34" rerouteNo="0" devices="tripinfo_N_thru_f2.6" vType="car" speedFactor="0.88" vaporized=""/>
    <tripinfo id="S_thru_f2.7" depart="168.00" departLane="S_thru_2_0" departPos="5.10" departSpeed="0.00" departDelay="0.00" arrival="210.00" arrivalLane="center_to_S_0" arrivalPos="486.40" arrivalSpeed="14.39" duration="42.00" routeLength="545.12" waitingTime="0.00" waitingCount="0" stopTime="0.00" timeLoss="5.35" rerouteNo="0" devices="tripinfo_S_thru_f2.7" vType="car" speedFactor="1.09" vaporized=""/>
    <tripinfo id="N_thru_f1.7" depart="168.00" departLane="N_thru_1_0" departPos="5.10" departSpeed="0.00" departDelay="0.00" arrival="211.00" arrivalLane="center_to_N_0" arrivalPos="486.40" arrivalSpeed="13.93" duration="43.00" routeLength="545.78" waitingTime="0.00" waitingCount="0" stopTime="0.00" timeLoss="4.51" rerouteNo="0" devices="tripinfo_N_thru_f1.7" vType="car" speedFactor="1.03" vaporized=""/>
    <tripinfo id="S_thru_f1.7" depart="168.00" departLane="S_thru_1_0" departPos="5.10" departSpeed="0.00" departDelay="0.00" arrival="212.00" arrivalLane="center_to_S_0" arrivalPos="486.40" arrivalSpeed="13.17" duration="44.00" routeLength="545.78" waitingTime="0.00" waitingCount="0" stopTime="0.00" timeLoss="4.90" rerouteNo="0" devices="tripinfo_S_thru_f1.7" vType="car" speedFactor="1.01" vaporized=""/>
    <tripinfo id="N_thru_f2.7" depart="168.00" departLane="N_thru_2_0" departPos="5.10" departSpeed="0.00" departDelay="0.00" arrival="213.00" arrivalLane="center_to_N_0" arrivalPos="486.40" arrivalSpeed="12.84" duration="45.00" routeLength="545.12" waitingTime="0.00" waitingCount="0" stopTime="0.00" timeLoss="4.71" rerouteNo="0" devices="tripinfo_N_thru_f2.7" vType="car" speedFactor="0.98" vaporized=""/>
    <tripinfo id="N_left_f.5" depart="180.00" departLane="N_left_0" departPos="5.10" departSpeed="0.00" departDelay="0.00" arrival="220.00" arrivalLane="center_to_W_0" arrivalPos="486.40" arrivalSpeed="14.95" duration="40.00" routeLength="532.27" waitingTime="0.00" waitingCount="0" stopTime="0.00" timeLoss="5.70" rerouteNo="0" devices="tripinfo_N_left_f.5" vType="car" speedFactor="1.15" vaporized=""/>
    <tripinfo id="W_left_f.5" depart="180.00" departLane="W_left_0" departPos="5.10" departSpeed="0.00" departDelay="0.00" arrival="224.00" arrivalLane="center_to_S_0" arrivalPos="486.40" arrivalSpeed="14.39" duration="44.00" routeLength="537.05" waitingTime="0.00" waitingCount="0" stopTime="0.00" timeLoss="5.77" rerouteNo="0" devices="tripinfo_W_left_f.5" vType="car" speedFactor="1.04" vaporized=""/>
    <tripinfo id="E_left_f.5" depart="180.00" departLane="E_left_0" departPos="5.10" departSpeed="0.00" departDelay="0.00" arrival="225.00" arrivalLane="center_to_N_0" arrivalPos="486.40" arrivalSpeed="13.44" duration="45.00" routeLength="537.05" waitingTime="0.00" waitingCount="0" stopTime="0.00" timeLoss="5.17" rerouteNo="0" devices="tripinfo_E_left_f.5" vType="car" speedFactor="1.00" vaporized=""/>
    <tripinfo id="S_left_f.5" depart="180.00" departLane="S_left_0" departPos="5.10" departSpeed="0.00" departDelay="0.00" arrival="227.00" arrivalLane="center_to_E_0" arrivalPos="486.40" arrivalSpeed="13.48" duration="47.00" routeLength="532.27" waitingTime="0.00" waitingCount="0" stopTime="0.00" timeLoss="6.08" rerouteNo="0" devices="tripinfo_S_left_f.5" vType="car" speedFactor="0.98" vaporized=""/>
    <tripinfo id="N_thru_f1.8" depart="192.00" departLane="N_thru_1_0" departPos="5.10" departSpeed="0.00" departDelay="0.00" arrival="236.00" arrivalLane="center_to_N_0" arrivalPos="486.40" arrivalSpeed="13.37" duration="44.00" routeLength="545.78" waitingTime="0.00" waitingCount="0" stopTime="0.00" timeLoss="4.56" rerouteNo="0" devices="tripinfo_N_thru_f1.8" vType="car" speedFactor="1.01" vaporized=""/>
    <tripinfo id="S_thru_f1.8" depart="192.00" departLane="S_thru_1_0" departPos="5.10" departSpeed="0.00" departDelay="0.00" arrival="236.00" arrivalLane="center_to_S_0" arrivalPos="486.40" arrivalSpeed="13.05" duration="44.00" routeLength="545.78" waitingTime="0.00" waitingCount="0" stopTime="0.00" timeLoss="4.94" rerouteNo="0" devices="tripinfo_S_thru_f1.8" vType="car" speedFactor="1.02" vaporized=""/>
    <tripinfo id="N_thru_f2.8" depart="192.00" departLane="N_thru_2_0" departPos="5.10" departSpeed="0.00" departDelay="0.00" arrival="237.00" arrivalLane="center_to_N_1" arrivalPos="486.40" arrivalSpeed="13.50" duration="45.00" routeLength="545.12" waitingTime="0.00" waitingCount="0" stopTime="0.00" timeLoss="5.67" rerouteNo="0" devices="tripinfo_N_thru_f2.8" vType="car" speedFactor="1.02" vaporized=""/>
    <tripinfo id="S_thru_f2.8" depart="192.00" departLane="S_thru_2_0" departPos="5.10" departSpeed="0.00" departDelay="0.00" arrival="241.00" arrivalLane="center_to_S_0" arrivalPos="486.40" arrivalSpeed="11.39" duration="49.00" routeLength="545.12" waitingTime="0.00" waitingCount="0" stopTime="0.00" timeLoss="4.79" rerouteNo="0" devices="tripinfo_S_thru_f2.8" vType="car" speedFactor="0.89" vaporized=""/>
    <tripinfo id="S_thru_f1.9" depart="216.00" departLane="S_thru_1_0" departPos="5.10" departSpeed="0.00" departDelay="0.00" arrival="256.00" arrivalLane="center_to_S_0" arrivalPos="486.40" arrivalSpeed="14.78" duration="40.00" routeLength="545.78" waitingTime="0.00" waitingCount="0" stopTime="0.00" timeLoss="4.95" rerouteNo="0" devices="tripinfo_S_thru_f1.9" vType="car" speedFactor="1.12" vaporized=""/>
    <tripinfo id="S_thru_f2.9" depart="216.00" departLane="S_thru_2_0" departPos="5.10" departSpeed="0.00" departDelay="0.00" arrival="257.00" arrivalLane="center_to_S_1" arrivalPos="486.40" arrivalSpeed="14.95" duration="41.00" routeLength="545.12" waitingTime="0.00" waitingCount="0" stopTime="0.00" timeLoss="4.58" rerouteNo="0" devices="tripinfo_S_thru_f2.9" vType="car" speedFactor="1.10" vaporized=""/>
    <tripinfo id="S_left_f.6" depart="216.00" departLane="S_left_0" departPos="5.10" departSpeed="0.00" departDelay="0.00" arrival="259.00" arrivalLane="center_to_E_0" arrivalPos="486.40" arrivalSpeed="13.87" duration="43.00" routeLength="532.27" waitingTime="0.00" waitingCount="0" stopTime="0.00" timeLoss="6.01" rerouteNo="0" devices="tripinfo_S_left_f.6" vType="car" speedFactor="1.07" vaporized=""/>
    <tripinfo id="W_left_f.6" depart="216.00" departLane="W_left_0" departPos="5.10" departSpeed="0.00" departDelay="0.00" arrival="259.00" arrivalLane="center_to_S_1" arrivalPos="486.40" arrivalSpeed="13.73" duration="43.00" routeLength="537.05" waitingTime="0.00" waitingCount="0" stopTime="0.00" timeLoss="5.04" rerouteNo="0" devices="tripinfo_W_left_f.6" vType="car" speedFactor="1.03" vaporized=""/>
    <tripinfo id="E_left_f.6" depart="216.00" departLane="E_left_0" departPos="5.10" departSpeed="0.00" departDelay="0.00" arrival="260.00" arrivalLane="center_to_N_1" arrivalPos="486.40" arrivalSpeed="13.41" duration="44.00" routeLength="537.05" waitingTime="0.00" waitingCount="0" stopTime="0.00" timeLoss="5.20" rerouteNo="0" devices="tripinfo_E_left_f.6" vType="car" speedFactor="1.01" vaporized=""/>
    <tripinfo id="N_thru_f1.9" depart="216.00" departLane="N_thru_1_0" departPos="5.10" departSpeed="0.00" departDelay="0.00" arrival="261.00" arrivalLane="center_to_N_0" arrivalPos="486.40" arrivalSpeed="13.91" duration="45.00" routeLength="545.78" waitingTime="0.00" waitingCount="0" stopTime="0.00" timeLoss="5.39" rerouteNo="0" devices="tripinfo_N_thru_f1.9" vType="car" speedFactor="1.01" vaporized=""/>